<LesHouchesEvents version="1.0">
<!--
  File written by Pythia8::LHAup on 01 May 2008 at 15:55:24
-->
<init>
  2212  -2212  9.800000e+02  9.800000e+02  0  0  0  0  3  1
  1.256166e+01  5.228307e-01  1.000000e+00   9999
</init>
<event>
     8  9999  1.000000e+00  9.695965e+01  7.822953e-03  1.253128e-01
        2    -1     0     0   101     0  0.0000000000e+00  0.0000000000e+00  2.1660416199e+02  2.1660416199e+02  0.0000000000e+00 0. 9.
       -2    -1     0     0     0   101  0.0000000000e+00  0.0000000000e+00 -1.9181391448e+02  1.9181391448e+02  0.0000000000e+00 0. 9.
      -24     2     1     2     0     0  5.1062194751e+01  2.1093033666e+01 -1.6719059479e+02  1.9385647926e+02  8.1088690713e+01 0. 9.
       24     2     1     2     0     0 -5.1062194751e+01 -2.1093033666e+01  1.9198084230e+02  2.1456159722e+02  7.8280082960e+01 0. 9.
       11     1     3     0     0     0  4.9566179326e+01  4.2468334037e+01 -7.5997387651e+01  1.0017968087e+02  5.1100000000e-04 0. 9.
      -12     1     3     0     0     0  1.4960154257e+00 -2.1375300370e+01 -9.1193207137e+01  9.3676798387e+01  0.0000000000e+00 0. 9.
       -1     1     4     0     0   102 -3.7557459993e+00 -2.3640710781e+01  9.0551366751e+00  2.5594789205e+01  3.3000000000e-01 0. 9.
        4     1     4     0   102     0 -4.7306448752e+01  2.5476771143e+00  1.8292570562e+02  1.8896680801e+02  1.5000000000e+00 0. 9.
#pdf    2   -2  2.210247e-01  1.957285e-01  9.581250e+01  4.641286e-01  4.944430e-01
</event>
<event>
     8  9999  1.000000e+00  1.160682e+02  7.838948e-03  1.219584e-01
        1    -1     0     0   101     0  0.0000000000e+00  0.0000000000e+00  1.0106016627e+02  1.0106016627e+02  0.0000000000e+00 0. 9.
       -1    -1     0     0     0   101  0.0000000000e+00  0.0000000000e+00 -1.3582609812e+02  1.3582609812e+02  0.0000000000e+00 0. 9.
       23     2     1     2     0     0  4.4465861021e+01  5.3060889300e+01 -3.3054585381e+01  1.1863926295e+02  9.0498609539e+01 0. 9.
       23     2     1     2     0     0 -4.4465861021e+01 -5.3060889300e+01 -1.7113464705e+00  1.1824700145e+02  9.5847555392e+01 0. 9.
        4     1     3     0   102     0  7.1073756267e+01  2.6677439073e+01 -1.6797241662e+01  7.7766071733e+01  1.5000000000e+00 0. 9.
       -4     1     3     0     0   102 -2.6607895246e+01  2.6383450227e+01 -1.6257343719e+01  4.0873191215e+01  1.5000000000e+00 0. 9.
        3     1     4     0   103     0 -2.2366166537e+01 -8.0089293606e+01 -4.0344541958e+00  8.3253031035e+01  5.0000000000e-01 0. 9.
       -3     1     4     0     0   103 -2.2099694484e+01  2.7028404306e+01  2.3231077253e+00  3.4993970411e+01  5.0000000000e-01 0. 9.
#pdf    1   -1  1.031226e-01  1.385981e-01  1.139415e+02  3.361582e-01  2.935347e-01
</event>
<event>
     8  9999  1.000000e+00  8.618820e+01  7.812517e-03  1.276106e-01
        2    -1     0     0   101     0  0.0000000000e+00  0.0000000000e+00  1.9496020996e+01  1.9496020996e+01  0.0000000000e+00 0. 9.
       -2    -1     0     0     0   101  0.0000000000e+00  0.0000000000e+00 -3.8606678471e+02  3.8606678471e+02  0.0000000000e+00 0. 9.
      -24     2     1     2     0     0  1.6740909789e+00 -7.2792912531e+00 -1.7128666942e+02  1.9374357249e+02  9.0231137065e+01 0. 9.
       24     2     1     2     0     0 -1.6740909789e+00  7.2792912531e+00 -1.9528409430e+02  2.1181923322e+02  8.1705075835e+01 0. 9.
        1     1     3     0   102     0  3.0119565517e+01  1.8711901100e+01 -2.7474085020e+01  4.4858195654e+01  3.3000000000e-01 0. 9.
       -2     1     3     0     0   102 -2.8445474538e+01 -2.5991192353e+01 -1.4381258440e+02  1.4888537683e+02  3.3000000000e-01 0. 9.
       -3     1     4     0     0   103 -2.7859375307e+01 -4.9486022748e+00 -1.7298822629e+02  1.7528779162e+02  5.0000000000e-01 0. 9.
        4     1     4     0   103     0  2.6185284328e+01  1.2227893528e+01 -2.2295868009e+01  3.6531441605e+01  1.5000000000e+00 0. 9.
#pdf    2   -2  1.989390e-02  3.939457e-01  8.204578e+01  6.325581e-01  2.368036e-01
</event>
<event>
     8  9999  1.000000e+00  9.992523e+01  7.825627e-03  1.247382e-01
        2    -1     0     0   101     0  0.0000000000e+00  0.0000000000e+00  1.8377090061e+02  1.8377090061e+02  0.0000000000e+00 0. 9.
       -2    -1     0     0     0   101  0.0000000000e+00  0.0000000000e+00 -5.4538065555e+01  5.4538065555e+01  0.0000000000e+00 0. 9.
       23     2     1     2     0     0 -3.8593851797e+01 -1.2592314296e-01  5.6560132382e+01  1.1345585889e+02  9.0463705923e+01 0. 9.
       23     2     1     2     0     0  3.8593851797e+01  1.2592314296e-01  7.2672702674e+01  1.2485310727e+02  9.3901413346e+01 0. 9.
        5     1     3     0   102     0  1.1638630662e+01 -3.3472704191e+01  3.2625396606e+01  4.8408017448e+01  4.8000000000e+00 0. 9.
       -5     1     3     0     0   102 -5.0232482458e+01  3.3346781048e+01  2.3934735776e+01  6.5047841447e+01  4.8000000000e+00 0. 9.
        4     1     4     0   103     0  3.4664361309e+01 -4.4567168047e+01  3.7088982504e+01  6.7569912209e+01  1.5000000000e+00 0. 9.
       -4     1     4     0     0   103  3.9294904880e+00  4.4693091190e+01  3.5583720169e+01  5.7283195063e+01  1.5000000000e+00 0. 9.
#pdf    2   -2  1.875213e-01  5.565109e-02  9.835234e+01  5.027170e-01  5.798417e-01
</event>
<event>
     8  9999  1.000000e+00  8.833153e+01  7.814691e-03  1.271244e-01
        2    -1     0     0   101     0  0.0000000000e+00  0.0000000000e+00  1.0670734526e+02  1.0670734526e+02  0.0000000000e+00 0. 9.
       -1    -1     0     0     0   101  0.0000000000e+00  0.0000000000e+00 -1.6777498394e+02  1.6777498394e+02  0.0000000000e+00 0. 9.
       23     2     1     2     0     0  1.6567121911e+01  1.5341753328e+01  7.1995947017e+01  1.1645997934e+02  8.8711168837e+01 0. 9.
       24     2     1     2     0     0 -1.6567121911e+01 -1.5341753328e+01 -1.3306358570e+02  1.5802234987e+02  8.2190670355e+01 0. 9.
       13     1     3     0     0     0 -2.4749357502e+01  2.2653360116e+01  4.9308147342e-01  3.3555323194e+01  1.0566000000e-01 0. 9.
      -13     1     3     0     0     0  4.1316479414e+01 -7.3116067873e+00  7.1502865544e+01  8.2904656142e+01  1.0566000000e-01 0. 9.
       -1     1     4     0     0   102 -2.4943501249e+01  2.6733892170e+01 -9.0412734736e+01  9.7526666854e+01  3.3000000000e-01 0. 9.
        2     1     4     0   102     0  8.3763793374e+00 -4.2075645498e+01 -4.2650850966e+01  6.0495683012e+01  3.3000000000e-01 0. 9.
#pdf    2   -1  1.088850e-01  1.711990e-01  8.523582e+01  5.654670e-01  2.619353e-01
</event>
<event>
     8  9999  1.000000e+00  1.093530e+02  7.833641e-03  1.230497e-01
        2    -1     0     0   101     0  0.0000000000e+00  0.0000000000e+00  8.4849753928e+01  8.4849753928e+01  0.0000000000e+00 0. 9.
       -2    -1     0     0     0   101  0.0000000000e+00  0.0000000000e+00 -1.4194892639e+02  1.4194892639e+02  0.0000000000e+00 0. 9.
      -24     2     1     2     0     0  1.1862591854e+00 -7.4792762510e+01 -3.7793685693e+01  1.1466906008e+02  7.8264079414e+01 0. 9.
       24     2     1     2     0     0 -1.1862591854e+00  7.4792762510e+01 -1.9305486769e+01  1.1212962024e+02  8.1271061150e+01 0. 9.
       13     1     3     0     0     0 -8.5342107723e+00  2.3794562648e+00  1.7242062121e+01  1.9385418124e+01  1.0566000000e-01 0. 9.
      -14     1     3     0     0     0  9.7204699577e+00 -7.7172218774e+01 -5.5035747814e+01  9.5283641955e+01  0.0000000000e+00 0. 9.
       -1     1     4     0     0   102 -9.5641841751e+00  5.7075495635e+01 -4.9484417262e+01  7.6143957559e+01  3.3000000000e-01 0. 9.
        2     1     4     0   102     0  8.3779249896e+00  1.7717266874e+01  3.0178930494e+01  3.5985662678e+01  3.3000000000e-01 0. 9.
#pdf    2   -2  8.658138e-02  1.448458e-01  1.082619e+02  5.698973e-01  5.397879e-01
</event>
<event>
     8  9999  1.000000e+00  8.500144e+01  7.811290e-03  1.278867e-01
        2    -1     0     0   101     0  0.0000000000e+00  0.0000000000e+00  3.9120929617e+01  3.9120929617e+01  0.0000000000e+00 0. 9.
       -2    -1     0     0     0   101  0.0000000000e+00  0.0000000000e+00 -1.9474806442e+02  1.9474806442e+02  0.0000000000e+00 0. 9.
      -24     2     1     2     0     0  1.3929345573e+01 -2.4367344349e+01 -1.0325323129e+02  1.3295914443e+02  7.8924712078e+01 0. 9.
       24     2     1     2     0     0 -1.3929345573e+01  2.4367344349e+01 -5.2373903510e+01  1.0090984961e+02  8.1559658164e+01 0. 9.
       11     1     3     0     0     0  2.1725409971e+01 -4.1221735395e+01 -1.0442767338e+02  1.1435192992e+02  5.1100000000e-04 0. 9.
      -12     1     3     0     0     0 -7.7960643986e+00  1.6854391045e+01  1.1744420934e+00  1.8607214511e+01  0.0000000000e+00 0. 9.
       -3     1     4     0     0   102 -9.8226747290e+00  4.6884357109e+01 -5.9963229296e+01  7.6749376206e+01  5.0000000000e-01 0. 9.
        4     1     4     0   102     0 -4.1066708438e+00 -2.2517012760e+01  7.5893257852e+00  2.4160473401e+01  1.5000000000e+00 0. 9.
#pdf    2   -2  3.991932e-02  1.987225e-01  8.376696e+01  5.887679e-01  4.952736e-01
</event>
<event>
     8  9999  1.000000e+00  9.550230e+01  7.821609e-03  1.256037e-01
        2    -1     0     0   101     0  0.0000000000e+00  0.0000000000e+00  9.6135210728e+01  9.6135210728e+01  0.0000000000e+00 0. 9.
       -2    -1     0     0     0   101  0.0000000000e+00  0.0000000000e+00 -1.1733280640e+02  1.1733280640e+02  0.0000000000e+00 0. 9.
      -24     2     1     2     0     0 -5.9812605003e+00  3.9695257537e+00  3.0863191723e+01  1.1787518454e+02  1.1353629338e+02 0. 9.
       24     2     1     2     0     0  5.9812605003e+00 -3.9695257537e+00 -5.2060787398e+01  9.5592832595e+01  7.9850682196e+01 0. 9.
        3     1     3     0   102     0  3.3512805854e+01 -8.8239356418e+00  5.8488842196e+01  6.7986503498e+01  5.0000000000e-01 0. 9.
       -4     1     3     0     0   102 -3.9494066354e+01  1.2793461395e+01 -2.7625650473e+01  4.9888681038e+01  1.5000000000e+00 0. 9.
       -3     1     4     0     0   103  2.1147751505e+01 -3.7657791350e+01 -2.7517096630e+01  5.1213057417e+01  5.0000000000e-01 0. 9.
        4     1     4     0   103     0 -1.5166491005e+01  3.3688265596e+01 -2.4543690768e+01  4.4379775178e+01  1.5000000000e+00 0. 9.
#pdf    2   -2  9.809715e-02  1.197274e-01  8.017271e+01  5.700757e-01  5.618311e-01
</event>
<event>
     8  9999  1.000000e+00  1.016128e+02  7.827114e-03  1.244211e-01
        2    -1     0     0   101     0  0.0000000000e+00  0.0000000000e+00  1.3908297505e+02  1.3908297505e+02  0.0000000000e+00 0. 9.
       -2    -1     0     0     0   101  0.0000000000e+00  0.0000000000e+00 -8.9617153198e+01  8.9617153198e+01  0.0000000000e+00 0. 9.
      -24     2     1     2     0     0  1.4290443357e+01  6.1001987860e+01 -2.2666061600e+01  1.0397549707e+02  7.9822893630e+01 0. 9.
       24     2     1     2     0     0 -1.4290443357e+01 -6.1001987860e+01  7.2131883454e+01  1.2472463118e+02  8.0173347933e+01 0. 9.
       13     1     3     0     0     0  4.0158379446e+01  2.1012612107e+01  9.7542975486e+00  4.6361436474e+01  1.0566000000e-01 0. 9.
      -14     1     3     0     0     0 -2.5867936088e+01  3.9989375753e+01 -3.2420359149e+01  5.7614060592e+01  0.0000000000e+00 0. 9.
       -3     1     4     0     0   102  1.7979841144e+01 -9.0258187854e+00 -9.8618270579e+00  2.2410839458e+01  5.0000000000e-01 0. 9.
        4     1     4     0   102     0 -3.2270284501e+01 -5.1976169075e+01  8.1993710512e+01  1.0231379172e+02  1.5000000000e+00 0. 9.
#pdf    2   -2  1.419214e-01  9.144607e-02  1.014749e+02  5.434770e-01  5.691084e-01
</event>
<event>
     8  9999  1.000000e+00  1.068347e+02  7.831569e-03  1.234816e-01
        2    -1     0     0   101     0  0.0000000000e+00  0.0000000000e+00  7.9101276378e+01  7.9101276378e+01  0.0000000000e+00 0. 9.
       -2    -1     0     0     0   101  0.0000000000e+00  0.0000000000e+00 -2.8621283603e+02  2.8621283603e+02  0.0000000000e+00 0. 9.
       23     2     1     2     0     0  5.0836927597e+01  2.1972497715e+01 -2.3269938530e+02  2.5651018753e+02  9.2635244502e+01 0. 9.
       23     2     1     2     0     0 -5.0836927597e+01 -2.1972497715e+01  2.5587825652e+01  1.0880392487e+02  9.0090917318e+01 0. 9.
        5     1     3     0   102     0 -2.5626060213e+01  1.2753355848e+01 -4.4769091564e+01  5.3354049583e+01  4.8000000000e+00 0. 9.
       -5     1     3     0     0   102  7.6462987810e+01  9.2191418670e+00 -1.8793029374e+02  2.0315613795e+02  4.8000000000e+00 0. 9.
       15     1     4     0     0     0 -4.4354425584e+01 -5.3663048963e+01  3.7678132876e+00  6.9745193407e+01  1.7769900000e+00 0. 9.
      -15     1     4     0     0     0 -6.4825020122e+00  3.1690551249e+01  2.1820012365e+01  3.9058731467e+01  1.7769900000e+00 0. 9.
#pdf    2   -2  8.071559e-02  2.920539e-01  1.057523e+02  5.718546e-01  3.643173e-01
</event>
<event>
     8  9999  1.000000e+00  9.134795e+01  7.817666e-03  1.264657e-01
        2    -1     0     0   101     0  0.0000000000e+00  0.0000000000e+00  1.9618219040e+02  1.9618219040e+02  0.0000000000e+00 0. 9.
       -2    -1     0     0     0   101  0.0000000000e+00  0.0000000000e+00 -1.9193088691e+02  1.9193088691e+02  0.0000000000e+00 0. 9.
      -24     2     1     2     0     0  3.5074721974e+01 -1.3964674519e+01 -1.6907510027e+02  1.9131276609e+02  8.1172265485e+01 0. 9.
       24     2     1     2     0     0 -3.5074721974e+01  1.3964674519e+01  1.7332640375e+02  1.9680031122e+02  8.5223658707e+01 0. 9.
       13     1     3     0     0     0  3.0005796006e+00  3.1959665950e+01 -4.6037628307e+01  5.6123953084e+01  1.0566000000e-01 0. 9.
      -14     1     3     0     0     0  3.2074142373e+01 -4.5924340469e+01 -1.2303747196e+02  1.3518881301e+02  0.0000000000e+00 0. 9.
       -3     1     4     0     0   102  1.5599324718e+01 -1.0800450007e+01  5.5258738633e+00  1.9768002781e+01  5.0000000000e-01 0. 9.
        4     1     4     0   102     0 -5.0674046691e+01  2.4765124526e+01  1.6780052989e+02  1.7703230844e+02  1.5000000000e+00 0. 9.
#pdf    2   -2  2.001859e-01  1.958478e-01  8.952198e+01  4.914931e-01  4.964205e-01
</event>
<event>
     8  9999  1.000000e+00  1.019043e+02  7.827369e-03  1.243670e-01
        2    -1     0     0   101     0  0.0000000000e+00  0.0000000000e+00  1.1577627102e+02  1.1577627102e+02  0.0000000000e+00 0. 9.
       -2    -1     0     0     0   101  0.0000000000e+00  0.0000000000e+00 -9.2808401321e+01  9.2808401321e+01  0.0000000000e+00 0. 9.
      -24     2     1     2     0     0  2.7924423460e+01  3.2614515725e+00  7.5822536664e+00  1.2175429715e+02  1.1822101256e+02 0. 9.
       24     2     1     2     0     0 -2.7924423460e+01 -3.2614515725e+00  1.5385616037e+01  8.6830375199e+01  8.0699358017e+01 0. 9.
        1     1     3     0   102     0 -4.0505092425e+01 -1.7887084020e+01  2.0798539006e+01  4.8921349244e+01  3.3000000000e-01 0. 9.
       -2     1     3     0     0   102  6.8429515885e+01  2.1148535593e+01 -1.3216285339e+01  7.2832947903e+01  3.3000000000e-01 0. 9.
       -1     1     4     0     0   103 -1.9215840894e+01  3.8119819089e+01  3.1483777723e+00  4.2806428621e+01  3.3000000000e-01 0. 9.
        2     1     4     0   103     0 -8.7085825659e+00 -4.1381270662e+01  1.2237238265e+01  4.4023946578e+01  3.3000000000e-01 0. 9.
#pdf    2   -2  1.181391e-01  9.470245e-02  8.545640e+01  5.613971e-01  5.702265e-01
</event>
<event>
     8  9999  1.000000e+00  9.486901e+01  7.821019e-03  1.257319e-01
        1    -1     0     0   101     0  0.0000000000e+00  0.0000000000e+00  1.4531678101e+02  1.4531678101e+02  0.0000000000e+00 0. 9.
       -1    -1     0     0     0   101  0.0000000000e+00  0.0000000000e+00 -8.0467923098e+01  8.0467923098e+01  0.0000000000e+00 0. 9.
      -24     2     1     2     0     0  1.2450153159e+01 -4.7103917288e+01  8.6369216902e+01  1.2766711891e+02  8.0408123258e+01 0. 9.
       24     2     1     2     0     0 -1.2450153159e+01  4.7103917288e+01 -2.1520358992e+01  9.8117585193e+01  8.2402362439e+01 0. 9.
        3     1     3     0   102     0  8.4771768217e+00  2.1313278396e+01  3.5650927517e+01  4.2395247324e+01  5.0000000000e-01 0. 9.
       -4     1     3     0     0   102  3.9729763374e+00 -6.8417195684e+01  5.0718289384e+01  8.5271871589e+01  1.5000000000e+00 0. 9.
      -15     1     4     0     0     0 -4.1893171710e+01  4.7885964506e+00 -1.9595998748e+01  4.6530950477e+01  1.7769900000e+00 0. 9.
       16     1     4     0     0     0  2.9443018551e+01  4.2315320838e+01 -1.9243602432e+00  5.1586634716e+01  0.0000000000e+00 0. 9.
#pdf    1   -1  1.482824e-01  8.211013e-02  9.401729e+01  2.856565e-01  3.658263e-01
</event>
<event>
     8  9999  1.000000e+00  9.264432e+01  7.818915e-03  1.261913e-01
        2    -1     0     0   101     0  0.0000000000e+00  0.0000000000e+00  1.1183887894e+02  1.1183887894e+02  0.0000000000e+00 0. 9.
       -2    -1     0     0     0   101  0.0000000000e+00  0.0000000000e+00 -1.9659452707e+02  1.9659452707e+02  0.0000000000e+00 0. 9.
      -24     2     1     2     0     0 -2.9984784700e+01  3.6100730929e+01 -1.6300568548e+02  1.8813462759e+02  8.1372197400e+01 0. 9.
       24     2     1     2     0     0  2.9984784700e+01 -3.6100730929e+01  7.8250037352e+01  1.2029877842e+02  7.8398837085e+01 0. 9.
       13     1     3     0     0     0  4.9171607699e+00  3.6003269157e+01 -2.1141895601e+01  4.2040513480e+01  1.0566000000e-01 0. 9.
      -14     1     3     0     0     0 -3.4901945470e+01  9.7461771414e-02 -1.4186378988e+02  1.4609411411e+02  0.0000000000e+00 0. 9.
       -1     1     4     0     0   102  5.0540989639e+01 -2.4842125246e+01  2.4031219064e+01  6.1230149519e+01  3.3000000000e-01 0. 9.
        2     1     4     0   102     0 -2.0556204939e+01 -1.1258605683e+01  5.4218818289e+01  5.9068628899e+01  3.3000000000e-01 0. 9.
#pdf    2   -2  1.141213e-01  2.006067e-01  9.137137e+01  5.620664e-01  4.903611e-01
</event>
<event>
     8  9999  1.000000e+00  8.032220e+01  7.806283e-03  1.290268e-01
        2    -1     0     0   101     0  0.0000000000e+00  0.0000000000e+00  1.3197386653e+02  1.3197386653e+02  0.0000000000e+00 0. 9.
       -2    -1     0     0     0   101  0.0000000000e+00  0.0000000000e+00 -5.5471430189e+01  5.5471430189e+01  0.0000000000e+00 0. 9.
      -24     2     1     2     0     0 -1.3347882817e+01  1.1756732752e+01  4.4819497254e+00  7.6050088594e+01  7.3804751616e+01 0. 9.
       24     2     1     2     0     0  1.3347882817e+01 -1.1756732752e+01  7.2020486614e+01  1.1139520812e+02  8.3099670035e+01 0. 9.
        3     1     3     0   102     0 -4.7001049240e+00  2.7311081366e+01  3.2568449723e+01  4.2766108883e+01  5.0000000000e-01 0. 9.
       -4     1     3     0     0   102 -8.6477778932e+00 -1.5554348614e+01 -2.8086499997e+01  3.3283979711e+01  1.5000000000e+00 0. 9.
      -15     1     4     0     0     0  2.1687070274e+00 -4.3208313714e+01  1.5954311035e+01  4.6144982373e+01  1.7769900000e+00 0. 9.
       16     1     4     0     0     0  1.1179175790e+01  3.1451580962e+01  5.6066175579e+01  6.5250225750e+01  0.0000000000e+00 0. 9.
#pdf    2   -2  1.346672e-01  5.660350e-02  7.591790e+01  5.548847e-01  5.793918e-01
</event>
<event>
     8  9999  1.000000e+00  1.178984e+02  7.840342e-03  1.216751e-01
        2    -1     0     0   101     0  0.0000000000e+00  0.0000000000e+00  3.2595616419e+02  3.2595616419e+02  0.0000000000e+00 0. 9.
       -2    -1     0     0     0   101  0.0000000000e+00  0.0000000000e+00 -5.4467119405e+01  5.4467119405e+01  0.0000000000e+00 0. 9.
      -24     2     1     2     0     0 -5.6767163717e+01  6.3875621604e+01  4.7087109932e+01  1.2691646535e+02  8.1166417576e+01 0. 9.
       24     2     1     2     0     0  5.6767163717e+01 -6.3875621604e+01  2.2440193485e+02  2.5350681825e+02  8.1282671102e+01 0. 9.
       13     1     3     0     0     0  1.4934732528e+01  2.1354752506e+01  3.3519967900e+01  4.2457874445e+01  1.0566000000e-01 0. 9.
      -14     1     3     0     0     0 -7.1701896245e+01  4.2520869098e+01  1.3567142032e+01  8.4458590901e+01  0.0000000000e+00 0. 9.
       -3     1     4     0     0   102 -9.8656983453e+00 -4.6313271206e+01  1.1279493702e+02  1.2233232979e+02  5.0000000000e-01 0. 9.
        4     1     4     0   102     0  6.6632862063e+01 -1.7562350398e+01  1.1160699783e+02  1.3117448846e+02  1.5000000000e+00 0. 9.
#pdf    2   -2  3.326083e-01  5.557869e-02  1.178584e+02  3.045127e-01  5.798843e-01
</event>
<event>
     8  9999  1.000000e+00  8.197673e+01  7.808085e-03  1.286139e-01
        1    -1     0     0   101     0  0.0000000000e+00  0.0000000000e+00  9.5962007561e+01  9.5962007561e+01  0.0000000000e+00 0. 9.
       -1    -1     0     0     0   101  0.0000000000e+00  0.0000000000e+00 -1.2036513047e+02  1.2036513047e+02  0.0000000000e+00 0. 9.
      -24     2     1     2     0     0 -1.6807598791e+01  9.9700241406e+00  5.7850325154e+01  9.9147556957e+01  7.8113258617e+01 0. 9.
       24     2     1     2     0     0  1.6807598791e+01 -9.9700241406e+00 -8.2253448063e+01  1.1717958107e+02  8.1138940982e+01 0. 9.
        1     1     3     0   102     0 -1.2519550662e+01 -2.9419524063e+01  3.9022352363e+00  3.2211548934e+01  3.3000000000e-01 0. 9.
       -2     1     3     0     0   102 -4.2880481298e+00  3.9389548203e+01  5.3948089917e+01  6.6936008024e+01  3.3000000000e-01 0. 9.
       -1     1     4     0     0   103 -8.2665423934e+00  2.4457851321e+01 -6.7226678367e+01  7.2014286073e+01  3.3000000000e-01 0. 9.
        2     1     4     0   103     0  2.5074141185e+01 -3.4427875462e+01 -1.5026769697e+01  4.5165295000e+01  3.3000000000e-01 0. 9.
#pdf    1   -1  9.792042e-02  1.228216e-01  8.052067e+01  3.471917e-01  3.174297e-01
</event>
<event>
     8  9999  1.000000e+00  8.837043e+01  7.814730e-03  1.271157e-01
        2    -1     0     0   101     0  0.0000000000e+00  0.0000000000e+00  2.4079925953e+02  2.4079925953e+02  0.0000000000e+00 0. 9.
       -2    -1     0     0     0   101  0.0000000000e+00  0.0000000000e+00 -2.0957783233e+02  2.0957783233e+02  0.0000000000e+00 0. 9.
      -24     2     1     2     0     0 -3.2291681826e+01 -1.7163122909e+01 -1.9143163086e+02  2.1070000661e+02  8.0069332374e+01 0. 9.
       24     2     1     2     0     0  3.2291681826e+01  1.7163122909e+01  2.2265305806e+02  2.3967708525e+02  8.0829421786e+01 0. 9.
       13     1     3     0     0     0  8.9886762291e+00  4.2583471576e+00 -1.4374761823e+02  1.4409135550e+02  1.0566000000e-01 0. 9.
      -14     1     3     0     0     0 -4.1280358055e+01 -2.1421470067e+01 -4.7684012635e+01  6.6608651105e+01  0.0000000000e+00 0. 9.
      -11     1     4     0     0     0 -1.8429135716e+01  2.5158053300e+01  1.3059928130e+02  1.3427111739e+02  5.1100000000e-04 0. 9.
       12     1     4     0     0     0  5.0720817542e+01 -7.9949303911e+00  9.2053776761e+01  1.0540596786e+02  0.0000000000e+00 0. 9.
#pdf    2   -2  2.457135e-01  2.138549e-01  8.802513e+01  4.348426e-01  4.758331e-01
</event>
<event>
     8  9999  1.000000e+00  8.222285e+01  7.808350e-03  1.285534e-01
        2    -1     0     0   101     0  0.0000000000e+00  0.0000000000e+00  3.7300663023e+02  3.7300663023e+02  0.0000000000e+00 0. 9.
       -2    -1     0     0     0   101  0.0000000000e+00  0.0000000000e+00 -1.9399590988e+01  1.9399590988e+01  0.0000000000e+00 0. 9.
      -24     2     1     2     0     0  1.0130389547e+01  3.9929100801e+00  1.3391905281e+02  1.5897155680e+02  8.4965140160e+01 0. 9.
       24     2     1     2     0     0 -1.0130389547e+01 -3.9929100801e+00  2.1968798644e+02  2.3343466442e+02  7.8168811211e+01 0. 9.
        1     1     3     0   102     0  1.2411507327e+01 -3.2039499443e+01  2.0653836947e+01  4.0090708641e+01  3.3000000000e-01 0. 9.
       -2     1     3     0     0   102 -2.2811177804e+00  3.6032409523e+01  1.1326521586e+02  1.1888084816e+02  3.3000000000e-01 0. 9.
      -13     1     4     0     0     0 -3.4800188599e+01  2.2530425795e+01  9.6419609088e+01  1.0495439673e+02  1.0566000000e-01 0. 9.
       14     1     4     0     0     0  2.4669799052e+01 -2.6523335875e+01  1.2326837735e+02  1.2848026769e+02  0.0000000000e+00 0. 9.
#pdf    2   -2  3.806190e-01  1.979550e-02  7.892358e+01  2.546443e-01  6.319348e-01
</event>
<event>
     8  9999  1.000000e+00  1.439159e+02  7.858156e-03  1.181765e-01
        1    -1     0     0   101     0  0.0000000000e+00  0.0000000000e+00  9.0635596595e+01  9.0635596595e+01  0.0000000000e+00 0. 9.
       -1    -1     0     0     0   101  0.0000000000e+00  0.0000000000e+00 -2.5279319518e+02  2.5279319518e+02  0.0000000000e+00 0. 9.
      -24     2     1     2     0     0  4.3327608911e+01 -1.1372191775e+02 -2.7267078428e+01  1.4528760618e+02  7.4532131821e+01 0. 9.
       24     2     1     2     0     0 -4.3327608911e+01  1.1372191775e+02 -1.3489052015e+02  1.9814118559e+02  7.9085527927e+01 0. 9.
        1     1     3     0   102     0 -1.1973580465e+01 -4.9628524551e+01  1.1257330502e+01  5.2279952834e+01  3.3000000000e-01 0. 9.
       -2     1     3     0     0   102  5.5301189376e+01 -6.4093393201e+01 -3.8524408930e+01  9.3007653351e+01  3.3000000000e-01 0. 9.
      -13     1     4     0     0     0 -1.2982018200e+01  1.0993402419e+02 -8.4768451195e+01  1.3942641053e+02  1.0566000000e-01 0. 9.
       14     1     4     0     0     0 -3.0345590710e+01  3.7878935598e+00 -5.0122068959e+01  5.8714775056e+01  0.0000000000e+00 0. 9.
#pdf    1   -1  9.248530e-02  2.579522e-01  1.427060e+02  3.471665e-01  1.658685e-01
</event>
<event>
     8  9999  1.000000e+00  1.154402e+02  7.838464e-03  1.220569e-01
        2    -1     0     0   101     0  0.0000000000e+00  0.0000000000e+00  2.7279449716e+02  2.7279449716e+02  0.0000000000e+00 0. 9.
       -2    -1     0     0     0   101  0.0000000000e+00  0.0000000000e+00 -6.5875741223e+01  6.5875741223e+01  0.0000000000e+00 0. 9.
      -24     2     1     2     0     0  2.5253132416e+01  7.8245198699e+01  1.8549456378e+01  1.1862553728e+02  8.3473971672e+01 0. 9.
       24     2     1     2     0     0 -2.5253132416e+01 -7.8245198699e+01  1.8836929956e+02  2.2004470111e+02  7.8591638557e+01 0. 9.
        1     1     3     0   102     0 -1.9333300796e+01  5.1077192050e+00 -1.6645117017e+01  2.6019879624e+01  3.3000000000e-01 0. 9.
       -2     1     3     0     0   102  4.4586433212e+01  7.3137479494e+01  3.5194573396e+01  9.2605657656e+01  3.3000000000e-01 0. 9.
       -1     1     4     0     0   103  2.0528074552e+01 -5.2705934003e+01  1.2891810536e+02  1.4078105027e+02  3.3000000000e-01 0. 9.
        2     1     4     0   103     0 -4.5781206968e+01 -2.5539264696e+01  5.9451194202e+01  7.9263650842e+01  3.3000000000e-01 0. 9.
#pdf    2   -2  2.783617e-01  6.722014e-02  1.137395e+02  3.809812e-01  5.753724e-01
</event>
<event>
     8  9999  1.000000e+00  1.350432e+02  7.852462e-03  1.192709e-01
        2    -1     0     0   101     0  0.0000000000e+00  0.0000000000e+00  3.6687249471e+02  3.6687249471e+02  0.0000000000e+00 0. 9.
       -1    -1     0     0     0   101  0.0000000000e+00  0.0000000000e+00 -5.0657327242e+01  5.0657327242e+01  0.0000000000e+00 0. 9.
       23     2     1     2     0     0  6.5750476889e+01 -8.0069906140e+01  1.3439142904e+02  1.9320894435e+02  9.2381409915e+01 0. 9.
       24     2     1     2     0     0 -6.5750476889e+01  8.0069906140e+01  1.8182373843e+02  2.2432087760e+02  8.0781614191e+01 0. 9.
       14     1     3     0     0     0 -4.7713193860e+00 -6.6699144927e+01  6.9511197876e+01  9.6453864893e+01  0.0000000000e+00 0. 9.
      -14     1     3     0     0     0  7.0521796275e+01 -1.3370761213e+01  6.4880231164e+01  9.6755079459e+01  0.0000000000e+00 0. 9.
       -3     1     4     0     0   102 -6.1900500211e+01  6.6184857831e+01  7.8225347021e+01  1.1971450309e+02  5.0000000000e-01 0. 9.
        4     1     4     0   102     0 -3.8499766779e+00  1.3885048309e+01  1.0359839141e+02  1.0460637452e+02  1.5000000000e+00 0. 9.
#pdf    2   -1  3.743597e-01  5.169115e-02  1.313773e+02  2.466214e-01  4.133095e-01
</event>
<event>
     8  9999  1.000000e+00  9.353197e+01  7.819760e-03  1.260063e-01
        2    -1     0     0   101     0  0.0000000000e+00  0.0000000000e+00  2.9281874202e+02  2.9281874202e+02  0.0000000000e+00 0. 9.
       -2    -1     0     0     0   101  0.0000000000e+00  0.0000000000e+00 -3.1234068729e+01  3.1234068729e+01  0.0000000000e+00 0. 9.
      -24     2     1     2     0     0 -1.7364140868e+01  6.7601373025e+00  1.7354823787e+02  2.0279919959e+02  1.0325362773e+02 0. 9.
       24     2     1     2     0     0  1.7364140868e+01 -6.7601373025e+00  8.8036435419e+01  1.2125361116e+02  8.1269990862e+01 0. 9.
       13     1     3     0     0     0 -2.0441180701e+01  4.1448489842e+01  1.5807426142e+02  1.6469153732e+02  1.0566000000e-01 0. 9.
      -14     1     3     0     0     0  3.0770398333e+00 -3.4688352539e+01  1.5473976457e+01  3.8107662266e+01  0.0000000000e+00 0. 9.
       -3     1     4     0     0   102  2.9225706131e+01 -3.7061850348e+01  3.4051880175e+01  5.8202261069e+01  5.0000000000e-01 0. 9.
        4     1     4     0   102     0 -1.1861565264e+01  3.0301713045e+01  5.3984555244e+01  6.3051350096e+01  1.5000000000e+00 0. 9.
#pdf    2   -2  2.987946e-01  3.187150e-02  8.337880e+01  3.632913e-01  5.987822e-01
</event>
<event>
     8  9999  1.000000e+00  1.724849e+02  7.874403e-03  1.151692e-01
        2    -1     0     0   101     0  0.0000000000e+00  0.0000000000e+00  2.2071275174e+02  2.2071275174e+02  0.0000000000e+00 0. 9.
       -2    -1     0     0     0   101  0.0000000000e+00  0.0000000000e+00 -2.9027282117e+02  2.9027282117e+02  0.0000000000e+00 0. 9.
      -24     2     1     2     0     0 -1.5194348339e+02 -8.2766424887e+00  1.5220051835e+02  2.3007921997e+02  8.1339564309e+01 0. 9.
       24     2     1     2     0     0  1.5194348339e+02  8.2766424887e+00 -2.2176058779e+02  2.8090635294e+02  8.1088198105e+01 0. 9.
        3     1     3     0   102     0 -1.2904521476e+02  1.5338234775e+01  1.4788319524e+02  1.9686954648e+02  5.0000000000e-01 0. 9.
       -4     1     3     0     0   102 -2.2898268626e+01 -2.3614877264e+01  4.3173231109e+00  3.3209673487e+01  1.5000000000e+00 0. 9.
      -11     1     4     0     0     0  1.5538803540e+02  7.2601267888e+00 -1.7554349296e+02  2.3454992839e+02  5.1100000000e-04 0. 9.
       12     1     4     0     0     0 -3.4445520152e+00  1.0165156999e+00 -4.6217094829e+01  4.6356424552e+01  0.0000000000e+00 0. 9.
#pdf    2   -2  2.252171e-01  2.961968e-01  1.724257e+02  4.399807e-01  3.423920e-01
</event>
<event>
     8  9999  1.000000e+00  9.823550e+01  7.824113e-03  1.250628e-01
       -2    -1     0     0     0   101  0.0000000000e+00  0.0000000000e+00  4.8408192543e+01  4.8408192543e+01  0.0000000000e+00 0. 9.
        2    -1     0     0   101     0  0.0000000000e+00  0.0000000000e+00 -2.1587768061e+02  2.1587768061e+02  0.0000000000e+00 0. 9.
      -24     2     1     2     0     0  3.6002097950e+01  4.6184950643e+01 -4.6274089058e+01  1.0752438971e+02  7.7401565493e+01 0. 9.
       24     2     1     2     0     0 -3.6002097950e+01 -4.6184950643e+01 -1.2119539901e+02  1.5676148344e+02  8.0353202976e+01 0. 9.
        1     1     3     0   102     0 -1.8962894527e+01 -6.2837507223e+00 -3.3741312623e+00  2.0262540654e+01  3.3000000000e-01 0. 9.
       -2     1     3     0     0   102  5.4964992477e+01  5.2468701366e+01 -4.2899957796e+01  8.7261849052e+01  3.3000000000e-01 0. 9.
       -3     1     4     0     0   103 -5.5393125665e+01 -1.2497460188e+01 -5.0139001822e+01  7.5754566765e+01  5.0000000000e-01 0. 9.
        4     1     4     0   103     0  1.9391027715e+01 -3.3687490456e+01 -7.1056397184e+01  8.1006916679e+01  1.5000000000e+00 0. 9.
#pdf   -2    2  4.939611e-02  2.202833e-01  9.705773e+01  1.726472e-01  2.398657e-02
</event>
<event>
     8  9999  1.000000e+00  8.070937e+01  7.806708e-03  1.289292e-01
        2    -1     0     0   101     0  0.0000000000e+00  0.0000000000e+00  3.6701285379e+02  3.6701285379e+02  0.0000000000e+00 0. 9.
       -2    -1     0     0     0   101  0.0000000000e+00  0.0000000000e+00 -1.7394215074e+02  1.7394215074e+02  0.0000000000e+00 0. 9.
      -24     2     1     2     0     0  7.5033795314e+00  6.2367992472e+00 -1.5989549611e+02  1.7864067513e+02  7.9061512559e+01 0. 9.
       24     2     1     2     0     0 -7.5033795314e+00 -6.2367992472e+00  3.5296619915e+02  3.6231432939e+02  8.1187050517e+01 0. 9.
        3     1     3     0   102     0 -7.7933195348e+00  2.0914093979e+01 -5.7717662090e+00  2.3058587154e+01  5.0000000000e-01 0. 9.
       -4     1     3     0     0   102  1.5296699066e+01 -1.4677294732e+01 -1.5412372990e+02  1.5558208798e+02  1.5000000000e+00 0. 9.
      -11     1     4     0     0     0 -1.2326044318e+00 -1.9429090380e+01  1.6467561564e+01  2.5498812733e+01  5.1100000000e-04 0. 9.
       12     1     4     0     0     0 -6.2707750996e+00  1.3192291132e+01  3.3649863759e+02  3.3681551666e+02  0.0000000000e+00 0. 9.
#pdf    2   -2  3.745029e-01  1.774920e-01  7.966129e+01  2.621257e-01  5.193362e-01
</event>
<event>
     8  9999  1.000000e+00  8.869295e+01  7.815053e-03  1.270439e-01
        2    -1     0     0   101     0  0.0000000000e+00  0.0000000000e+00  8.8305144011e+01  8.8305144011e+01  0.0000000000e+00 0. 9.
       -2    -1     0     0     0   101  0.0000000000e+00  0.0000000000e+00 -1.6117697609e+02  1.6117697609e+02  0.0000000000e+00 0. 9.
      -24     2     1     2     0     0 -2.8385268458e+00  2.9648242814e+01 -1.1937660543e+02  1.4755947608e+02  8.1461337574e+01 0. 9.
       24     2     1     2     0     0  2.8385268458e+00 -2.9648242814e+01  4.6504773359e+01  1.0192264402e+02  8.5664787875e+01 0. 9.
        3     1     3     0   102     0 -3.7541529423e+01  7.2035153067e+00 -2.8400048574e+01  4.7624256668e+01  5.0000000000e-01 0. 9.
       -4     1     3     0     0   102  3.4703002577e+01  2.2444727508e+01 -9.0976556861e+01  9.9935219412e+01  1.5000000000e+00 0. 9.
       -3     1     4     0     0   103  3.9855789014e+01 -3.8814318272e+00  3.9509531042e+01  5.6256577163e+01  5.0000000000e-01 0. 9.
        4     1     4     0   103     0 -3.7017262168e+01 -2.5766810987e+01  6.9952423169e+00  4.5666066854e+01  1.5000000000e+00 0. 9.
#pdf    2   -2  9.010729e-02  1.644663e-01  8.673537e+01  5.713083e-01  5.291523e-01
</event>
<event>
     8  9999  1.000000e+00  1.002306e+02  7.825898e-03  1.246803e-01
        2    -1     0     0   101     0  0.0000000000e+00  0.0000000000e+00  1.3750248663e+02  1.3750248663e+02  0.0000000000e+00 0. 9.
       -2    -1     0     0     0   101  0.0000000000e+00  0.0000000000e+00 -8.3142600529e+01  8.3142600529e+01  0.0000000000e+00 0. 9.
      -24     2     1     2     0     0 -2.6713545161e+01 -5.6602386171e+01  6.5581409149e+01  1.1973247006e+02  7.8214445884e+01 0. 9.
       24     2     1     2     0     0  2.6713545161e+01  5.6602386171e+01 -1.1221523049e+01  1.0091261710e+02  7.8358088893e+01 0. 9.
        3     1     3     0   102     0 -3.5475495850e+00 -5.8336340301e+01  7.4598785345e+01  9.4767834642e+01  5.0000000000e-01 0. 9.
       -4     1     3     0     0   102 -2.3165995576e+01  1.7339541296e+00 -9.0173761968e+00  2.4964635416e+01  1.5000000000e+00 0. 9.
       -3     1     4     0     0   103 -2.0427733435e+01  4.4772367549e+01 -1.6717837899e+01  5.1976853437e+01  5.0000000000e-01 0. 9.
        4     1     4     0   103     0  4.7141278596e+01  1.1830018623e+01  5.4963148501e+00  4.8935763662e+01  1.5000000000e+00 0. 9.
#pdf    2   -2  1.403087e-01  8.483939e-02  1.001746e+02  5.449319e-01  5.712023e-01
</event>
<event>
     8  9999  1.000000e+00  8.544766e+01  7.811753e-03  1.277823e-01
        2    -1     0     0   101     0  0.0000000000e+00  0.0000000000e+00  4.0616167190e+01  4.0616167190e+01  0.0000000000e+00 0. 9.
       -2    -1     0     0     0   101  0.0000000000e+00  0.0000000000e+00 -2.3069610239e+02  2.3069610239e+02  0.0000000000e+00 0. 9.
      -24     2     1     2     0     0  2.8458464773e+01  8.4842283457e-01 -1.5859145842e+02  1.8004304573e+02  8.0334572835e+01 0. 9.
       24     2     1     2     0     0 -2.8458464773e+01 -8.4842283457e-01 -3.1488476779e+01  9.1269223850e+01  8.0795686852e+01 0. 9.
        1     1     3     0   102     0 -2.1123521600e+01 -1.7968942351e+01 -8.4441659224e+01  8.8879630774e+01  3.3000000000e-01 0. 9.
       -2     1     3     0     0   102  4.9581986373e+01  1.8817365186e+01 -7.4149799195e+01  9.1163414953e+01  3.3000000000e-01 0. 9.
       -3     1     4     0     0   103  2.4223257318e+01  2.4274809124e+00 -2.9738437970e+01  3.8435446551e+01  5.0000000000e-01 0. 9.
        4     1     4     0   103     0 -5.2681722091e+01 -3.2759037469e+00 -1.7500388088e+00  5.2833777299e+01  1.5000000000e+00 0. 9.
#pdf    2   -2  4.144507e-02  2.354042e-01  8.523056e+01  5.875699e-01  4.496323e-01
</event>
<event>
     8  9999  1.000000e+00  9.664434e+01  7.822664e-03  1.253753e-01
        2    -1     0     0   101     0  0.0000000000e+00  0.0000000000e+00  2.2880704127e+01  2.2880704127e+01  0.0000000000e+00 0. 9.
       -2    -1     0     0     0   101  0.0000000000e+00  0.0000000000e+00 -4.7669265597e+02  4.7669265597e+02  0.0000000000e+00 0. 9.
      -24     2     1     2     0     0  1.0243079466e+01 -5.3888860119e+01 -3.1784793594e+02  3.3170123448e+02  7.7391657510e+01 0. 9.
       24     2     1     2     0     0 -1.0243079466e+01  5.3888860119e+01 -1.3596401591e+02  1.6787212562e+02  8.1767395806e+01 0. 9.
       13     1     3     0     0     0 -1.2206471472e+01  1.0293163887e+01 -1.7236465393e+01  2.3495830947e+01  1.0566000000e-01 0. 9.
      -14     1     3     0     0     0  2.2449550938e+01 -6.4182024005e+01 -3.0061147055e+02  3.0820540353e+02  0.0000000000e+00 0. 9.
       -3     1     4     0     0   102  3.5475802836e+01  2.4780241233e+01 -7.2158211582e+01  8.4140658668e+01  5.0000000000e-01 0. 9.
        4     1     4     0   102     0 -4.5718882302e+01  2.9108618886e+01 -6.3805804326e+01  8.3731466953e+01  1.5000000000e+00 0. 9.
#pdf    2   -2  2.334766e-02  4.864211e-01  9.485989e+01  6.221297e-01  1.347716e-01
</event>
<event>
     8  9999  1.000000e+00  1.318124e+02  7.850298e-03  1.196927e-01
        2    -1     0     0   101     0  0.0000000000e+00  0.0000000000e+00  1.6257957640e+02  1.6257957640e+02  0.0000000000e+00 0. 9.
       -2    -1     0     0     0   101  0.0000000000e+00  0.0000000000e+00 -1.8004909708e+02  1.8004909708e+02  0.0000000000e+00 0. 9.
      -24     2     1     2     0     0 -9.1930617172e+01  5.1858435659e+01 -1.1799745984e+02  1.7800810014e+02  8.1381493373e+01 0. 9.
       24     2     1     2     0     0  9.1930617172e+01 -5.1858435659e+01  1.0052793916e+02  1.6462057334e+02  7.6508371392e+01 0. 9.
       11     1     3     0     0     0  8.9736640502e+00  1.1527988902e+00  5.5596077743e+00  1.0619078615e+01  5.1100000000e-04 0. 9.
      -12     1     3     0     0     0 -1.0090428122e+02  5.0705636769e+01 -1.2355706762e+02  1.6738902152e+02  0.0000000000e+00 0. 9.
      -13     1     4     0     0     0  3.3129293506e+01  1.2101929357e+01  5.2197530892e+00  3.5654786056e+01  1.0566000000e-01 0. 9.
       14     1     4     0     0     0  5.8801323666e+01 -6.3960365016e+01  9.5308186075e+01  1.2896578729e+02  0.0000000000e+00 0. 9.
#pdf    2   -2  1.658975e-01  1.837236e-01  1.303613e+02  5.169085e-01  4.986008e-01
</event>
<event>
     8  9999  1.000000e+00  8.355616e+01  7.809773e-03  1.282299e-01
        2    -1     0     0   101     0  0.0000000000e+00  0.0000000000e+00  2.5024938922e+02  2.5024938922e+02  0.0000000000e+00 0. 9.
       -2    -1     0     0     0   101  0.0000000000e+00  0.0000000000e+00 -6.9159584900e+01  6.9159584900e+01  0.0000000000e+00 0. 9.
      -24     2     1     2     0     0  3.7123552401e-01  2.3110463371e+01 -3.2722559734e+01  8.9923138428e+01  8.0505736293e+01 0. 9.
       24     2     1     2     0     0 -3.7123552401e-01 -2.3110463371e+01  2.1381236406e+02  2.2948583570e+02  8.0086143794e+01 0. 9.
        1     1     3     0   102     0  7.3382970738e+00 -2.9233054632e+01 -5.9717827607e+00  3.0727726509e+01  3.3000000000e-01 0. 9.
       -2     1     3     0     0   102 -6.9670615497e+00  5.2343518003e+01 -2.6750776974e+01  5.9195411919e+01  3.3000000000e-01 0. 9.
       -3     1     4     0     0   103  3.0817883871e+01  1.3234217336e+01  1.1285892737e+02  1.1773815848e+02  5.0000000000e-01 0. 9.
        4     1     4     0   103     0 -3.1189119395e+01 -3.6344680707e+01  1.0095343669e+02  1.1174767722e+02  1.5000000000e+00 0. 9.
#pdf    2   -2  2.553565e-01  7.057100e-02  8.335479e+01  4.237354e-01  5.759662e-01
</event>
<event>
     8  9999  1.000000e+00  1.146578e+02  7.837858e-03  1.221807e-01
        1    -1     0     0   101     0  0.0000000000e+00  0.0000000000e+00  6.4505861531e+01  6.4505861531e+01  0.0000000000e+00 0. 9.
       -1    -1     0     0     0   101  0.0000000000e+00  0.0000000000e+00 -2.2108689358e+02  2.2108689358e+02  0.0000000000e+00 0. 9.
      -24     2     1     2     0     0 -5.8705324978e+01 -5.8405422794e+01 -3.9243540245e+01  1.2246692410e+02  8.1243974877e+01 0. 9.
       24     2     1     2     0     0  5.8705324978e+01  5.8405422794e+01 -1.1733749180e+02  1.6312583101e+02  7.7359169907e+01 0. 9.
        3     1     3     0   102     0  1.7859630278e+00 -5.1097880868e+01 -2.2749231696e+00  5.1182109849e+01  5.0000000000e-01 0. 9.
       -4     1     3     0     0   102 -6.0491288006e+01 -7.3075419262e+00 -3.6968617075e+01  7.1284814246e+01  1.5000000000e+00 0. 9.
       -3     1     4     0     0   103 -1.5220095882e+01  1.9722552806e+01 -9.2619716664e+00  2.6583162471e+01  5.0000000000e-01 0. 9.
        4     1     4     0   103     0  7.3925420860e+01  3.8682869989e+01 -1.0807552014e+02  1.3654266854e+02  1.5000000000e+00 0. 9.
#pdf    1   -1  6.582231e-02  2.255989e-01  1.133223e+02  3.882638e-01  2.000929e-01
</event>
<event>
     8  9999  1.000000e+00  1.110826e+02  7.835038e-03  1.227604e-01
        2    -1     0     0   101     0  0.0000000000e+00  0.0000000000e+00  1.6014462352e+02  1.6014462352e+02  0.0000000000e+00 0. 9.
       -2    -1     0     0     0   101  0.0000000000e+00  0.0000000000e+00 -3.5056545326e+02  3.5056545326e+02  0.0000000000e+00 0. 9.
      -24     2     1     2     0     0 -4.6083345140e+01 -6.1851702070e+01 -3.2097493236e+02  3.4003345941e+02  8.1538571020e+01 0. 9.
       24     2     1     2     0     0  4.6083345140e+01  6.1851702070e+01  1.3055410262e+02  1.7067661737e+02  7.8337897969e+01 0. 9.
       15     1     3     0     0     0 -4.2742230877e+01 -3.6572544375e+00 -6.7926909695e+01  8.0358550040e+01  1.7769900000e+00 0. 9.
      -16     1     3     0     0     0 -3.3411142630e+00 -5.8194447633e+01 -2.5304802267e+02  2.5967490937e+02  0.0000000000e+00 0. 9.
       -1     1     4     0     0   102  2.8785255740e+01 -1.1372235904e+01  6.0088368396e+01  6.7591712613e+01  3.3000000000e-01 0. 9.
        2     1     4     0   102     0  1.7298089400e+01  7.3223937974e+01  7.0465734225e+01  1.0308490476e+02  3.3000000000e-01 0. 9.
#pdf    2   -2  1.634129e-01  3.577199e-01  1.099370e+02  5.237465e-01  2.733319e-01
</event>
<event>
     8  9999  1.000000e+00  2.159765e+02  7.894672e-03  1.116415e-01
        2    -1     0     0   101     0  0.0000000000e+00  0.0000000000e+00  1.5552900238e+02  1.5552900238e+02  0.0000000000e+00 0. 9.
       -2    -1     0     0     0   101  0.0000000000e+00  0.0000000000e+00 -3.1653601307e+02  3.1653601307e+02  0.0000000000e+00 0. 9.
      -24     2     1     2     0     0  1.5877680998e+02  1.0554991118e+02 -1.3048050238e+02  2.4479214884e+02  8.0914618562e+01 0. 9.
       24     2     1     2     0     0 -1.5877680998e+02 -1.0554991118e+02 -3.0526508306e+01  2.2727286661e+02  1.1987589019e+02 0. 9.
        1     1     3     0   102     0  1.2822181773e+02  4.0454952965e+01 -9.4724272470e+01  1.6446955480e+02  3.3000000000e-01 0. 9.
       -4     1     3     0     0   102  3.0554992252e+01  6.5094958219e+01 -3.5756229907e+01  8.0322594046e+01  1.5000000000e+00 0. 9.
       -3     1     4     0     0   103  1.0515496773e+01 -1.8416564598e+01 -3.0152289595e+01  3.6866734216e+01  5.0000000000e-01 0. 9.
        4     1     4     0   103     0 -1.6929230675e+02 -8.7133346586e+01 -3.7421871094e-01  1.9040613239e+02  1.5000000000e+00 0. 9.
#pdf    2   -2  1.587031e-01  3.229959e-01  2.071184e+02  5.121650e-01  3.000055e-01
</event>
<event>
     8  9999  1.000000e+00  9.644848e+01  7.822484e-03  1.254142e-01
        2    -1     0     0   101     0  0.0000000000e+00  0.0000000000e+00  5.9722905619e+01  5.9722905619e+01  0.0000000000e+00 0. 9.
       -2    -1     0     0     0   101  0.0000000000e+00  0.0000000000e+00 -1.6083866553e+02  1.6083866553e+02  0.0000000000e+00 0. 9.
      -24     2     1     2     0     0  1.4316553031e+01 -5.6567851973e+01 -7.0937402878e+01  1.2113774365e+02  7.8976909542e+01 0. 9.
       24     2     1     2     0     0 -1.4316553031e+01  5.6567851973e+01 -3.0178357033e+01  9.9423827503e+01  7.4628939927e+01 0. 9.
        3     1     3     0   102     0  3.9092185668e+01 -4.0391783603e+00 -3.6278349255e+01  5.3487218724e+01  5.0000000000e-01 0. 9.
       -4     1     3     0     0   102 -2.4775632636e+01 -5.2528673613e+01 -3.4659053623e+01  6.7650524921e+01  1.5000000000e+00 0. 9.
       -3     1     4     0     0   103  6.7303595600e+00 -4.5197936418e+00 -3.3732891242e+01  3.4697034829e+01  5.0000000000e-01 0. 9.
        4     1     4     0   103     0 -2.1046912591e+01  6.1087645615e+01  3.5545342094e+00  6.4726792674e+01  1.5000000000e+00 0. 9.
#pdf    2   -2  6.094174e-02  1.641211e-01  9.473312e+01  5.779631e-01  5.270733e-01
</event>
<event>
     8  9999  1.000000e+00  8.829258e+01  7.814652e-03  1.271331e-01
        2    -1     0     0   101     0  0.0000000000e+00  0.0000000000e+00  6.8536674632e+01  6.8536674632e+01  0.0000000000e+00 0. 9.
       -2    -1     0     0     0   101  0.0000000000e+00  0.0000000000e+00 -1.2015583375e+02  1.2015583375e+02  0.0000000000e+00 0. 9.
      -24     2     1     2     0     0 -3.6723246180e+01 -7.7955783324e+00 -4.7786745234e+01  1.0101563468e+02  8.0692115962e+01 0. 9.
       24     2     1     2     0     0  3.6723246180e+01  7.7955783324e+00 -3.8324138881e+00  8.7676873706e+01  7.9140248515e+01 0. 9.
        1     1     3     0   102     0  1.0262057392e+01  1.3393767141e+01  1.3010884233e+01  2.1309500901e+01  3.3000000000e-01 0. 9.
       -2     1     3     0     0   102 -4.6985303572e+01 -2.1189345473e+01 -6.0797629467e+01  7.9706133780e+01  3.3000000000e-01 0. 9.
      -15     1     4     0     0     0  2.6721050471e+01  3.2003168600e+01  2.5062293807e+01  4.8677444500e+01  1.7769900000e+00 0. 9.
       16     1     4     0     0     0  1.0002195709e+01 -2.4207590268e+01 -2.8894707695e+01  3.8999429206e+01  0.0000000000e+00 0. 9.
#pdf    2   -2  6.993538e-02  1.226080e-01  8.759307e+01  5.758552e-01  5.586976e-01
</event>
<event>
     8  9999  1.000000e+00  9.992488e+01  7.825627e-03  1.247383e-01
        2    -1     0     0   101     0  0.0000000000e+00  0.0000000000e+00  1.5453124905e+01  1.5453124905e+01  0.0000000000e+00 0. 9.
       -2    -1     0     0     0   101  0.0000000000e+00  0.0000000000e+00 -6.4716070511e+02  6.4716070511e+02  0.0000000000e+00 0. 9.
      -24     2     1     2     0     0 -4.0101743673e+01 -4.4790770437e+01 -3.2917872547e+02  3.4403047689e+02  7.9899766983e+01 0. 9.
       24     2     1     2     0     0  4.0101743673e+01  4.4790770437e+01 -3.0252885473e+02  3.1858335312e+02  7.9732565371e+01 0. 9.
       15     1     3     0     0     0  1.1623594201e+01  1.6061485876e+01 -7.5246308309e+01  7.7834721547e+01  1.7769900000e+00 0. 9.
      -16     1     3     0     0     0 -5.1725337874e+01 -6.0852256313e+01 -2.5393241716e+02  2.6619575534e+02  0.0000000000e+00 0. 9.
      -15     1     4     0     0     0 -1.5973784444e+01  7.4643054109e+00 -1.5954391308e+02  1.6052506203e+02  1.7769900000e+00 0. 9.
       16     1     4     0     0     0  5.6075528117e+01  3.7326465026e+01 -1.4298494165e+02  1.5805829109e+02  0.0000000000e+00 0. 9.
#pdf    2   -2  1.576849e-02  6.603681e-01  9.985812e+01  6.633783e-01  3.026930e-02
</event>
<event>
     8  9999  1.000000e+00  1.422351e+02  7.857104e-03  1.183770e-01
        1    -1     0     0   101     0  0.0000000000e+00  0.0000000000e+00  1.8662324941e+02  1.8662324941e+02  0.0000000000e+00 0. 9.
       -1    -1     0     0     0   101  0.0000000000e+00  0.0000000000e+00 -1.6360210764e+02  1.6360210764e+02  0.0000000000e+00 0. 9.
      -24     2     1     2     0     0  9.2899483141e+01  7.3633518168e+01  1.1321781919e+02  1.8169040819e+02  7.8364027989e+01 0. 9.
       24     2     1     2     0     0 -9.2899483141e+01 -7.3633518168e+01 -9.0196677413e+01  1.6853494885e+02  7.8844019450e+01 0. 9.
        3     1     3     0   102     0 -8.8178994752e+00  5.8036649162e+00  3.4959047872e+01  3.6521540298e+01  5.0000000000e-01 0. 9.
       -4     1     3     0     0   102  1.0171738262e+02  6.7829853252e+01  7.8258771314e+01  1.4516886790e+02  1.5000000000e+00 0. 9.
       -1     1     4     0     0   103  9.0546322528e-01 -2.1318694947e+01 -4.9094105944e+01  5.3531735973e+01  3.3000000000e-01 0. 9.
        2     1     4     0   103     0 -9.3804946366e+01 -5.2314823222e+01 -4.1102571469e+01  1.1500321288e+02  3.3000000000e-01 0. 9.
#pdf    1   -1  1.904319e-01  1.669409e-01  1.421025e+02  2.321358e-01  2.576795e-01
</event>
<event>
     8  9999  1.000000e+00  1.267370e+02  7.846791e-03  1.203830e-01
        2    -1     0     0   101     0  0.0000000000e+00  0.0000000000e+00  1.6548439329e+02  1.6548439329e+02  0.0000000000e+00 0. 9.
       -2    -1     0     0     0   101  0.0000000000e+00  0.0000000000e+00 -1.0432511304e+02  1.0432511304e+02  0.0000000000e+00 0. 9.
      -24     2     1     2     0     0 -6.1927404100e+01 -7.4224456521e+01 -5.3414492816e+00  1.2521954103e+02  7.9417435437e+01 0. 9.
       24     2     1     2     0     0  6.1927404100e+01  7.4224456521e+01  6.6500729532e+01  1.4458996530e+02  8.4496376925e+01 0. 9.
        3     1     3     0   102     0 -2.2060259166e+01 -4.6296402159e+00  3.0027210028e+01  3.7549593141e+01  5.0000000000e-01 0. 9.
       -4     1     3     0     0   102 -3.9867144934e+01 -6.9594816305e+01 -3.5368659310e+01  8.7669947891e+01  1.5000000000e+00 0. 9.
       -3     1     4     0     0   103 -4.7594190020e-01  4.2097031242e+01 -7.3007138797e+00  4.2730983879e+01  5.0000000000e-01 0. 9.
        4     1     4     0   103     0  6.2403346001e+01  3.2127425279e+01  7.3801443412e+01  1.0185898142e+02  1.5000000000e+00 0. 9.
#pdf    2   -2  1.688616e-01  1.064542e-01  1.251056e+02  5.151231e-01  5.603904e-01
</event>
<event>
     8  9999  1.000000e+00  9.952198e+01  7.825268e-03  1.248150e-01
        2    -1     0     0   101     0  0.0000000000e+00  0.0000000000e+00  1.9288374132e+02  1.9288374132e+02  0.0000000000e+00 0. 9.
       -2    -1     0     0     0   101  0.0000000000e+00  0.0000000000e+00 -1.4642248622e+02  1.4642248622e+02  0.0000000000e+00 0. 9.
       23     2     1     2     0     0  3.7951957324e+01 -5.5416100955e+00 -1.1350934235e+02  1.5067115730e+02  9.1358449711e+01 0. 9.
       23     2     1     2     0     0 -3.7951957324e+01  5.5416100955e+00  1.5997059746e+02  1.8863507024e+02  9.2312172353e+01 0. 9.
        4     1     3     0   102     0 -8.2070754031e+00  2.0942603690e+01  2.8386322538e+00  2.2721280093e+01  1.5000000000e+00 0. 9.
       -4     1     3     0     0   102  4.6159032727e+01 -2.6484213786e+01 -1.1634797461e+02  1.2794987721e+02  1.5000000000e+00 0. 9.
        3     1     4     0   103     0 -5.4391907216e+01  3.4541745261e+01  1.2297517900e+02  1.3883355641e+02  5.0000000000e-01 0. 9.
       -3     1     4     0     0   103  1.6439949892e+01 -2.9000135166e+01  3.6995418458e+01  4.9801513822e+01  5.0000000000e-01 0. 9.
#pdf    2   -2  1.968201e-01  1.494107e-01  9.908293e+01  4.921661e-01  5.383721e-01
</event>
<event>
     8  9999  1.000000e+00  1.288786e+02  7.848287e-03  1.200875e-01
        2    -1     0     0   101     0  0.0000000000e+00  0.0000000000e+00  5.6594461346e+01  5.6594461346e+01  0.0000000000e+00 0. 9.
       -2    -1     0     0     0   101  0.0000000000e+00  0.0000000000e+00 -3.5005778541e+02  3.5005778541e+02  0.0000000000e+00 0. 9.
      -24     2     1     2     0     0  4.5557883011e+01 -9.0730925088e+01 -6.4601602142e+01  1.4379422044e+02  7.8713336615e+01 0. 9.
       24     2     1     2     0     0 -4.5557883011e+01  9.0730925088e+01 -2.2886172192e+02  2.6285802632e+02  8.0056434883e+01 0. 9.
        1     1     3     0   102     0 -1.5025880325e+01  8.7280204759e-01 -2.0523407945e+01  2.5453055546e+01  3.3000000000e-01 0. 9.
       -2     1     3     0     0   102  6.0583763335e+01 -9.1603727135e+01 -4.4078194197e+01  1.1834116489e+02  3.3000000000e-01 0. 9.
       -3     1     4     0     0   103 -3.8543607984e+01  5.5657047241e+00 -1.0818285541e+02  1.1497985472e+02  5.0000000000e-01 0. 9.
        4     1     4     0   103     0 -7.0142750270e+00  8.5165220364e+01 -1.2067886651e+02  1.4787817160e+02  1.5000000000e+00 0. 9.
#pdf    2   -2  5.774945e-02  3.572018e-01  1.284656e+02  5.787689e-01  2.691266e-01
</event>
<event>
     8  9999  1.000000e+00  8.697235e+01  7.813318e-03  1.274309e-01
        1    -1     0     0   101     0  0.0000000000e+00  0.0000000000e+00  1.7783524083e+02  1.7783524083e+02  0.0000000000e+00 0. 9.
       -2    -1     0     0     0   101  0.0000000000e+00  0.0000000000e+00 -3.7900257795e+02  3.7900257795e+02  0.0000000000e+00 0. 9.
       23     2     1     2     0     0  1.6818119448e+01  4.3758952888e+00  1.6085615908e+02  1.8578039380e+02  9.1310750767e+01 0. 9.
      -24     2     1     2     0     0 -1.6818119448e+01 -4.3758952888e+00 -3.6202349620e+02  3.7105742498e+02  7.9502221572e+01 0. 9.
       15     1     3     0     0     0  3.5746006289e+01 -1.5159549150e+01  1.5234255534e+02  1.5722277430e+02  1.7769900000e+00 0. 9.
      -15     1     3     0     0     0 -1.8927886841e+01  1.9535444439e+01  8.5136037381e+00  2.8557619504e+01  1.7769900000e+00 0. 9.
       15     1     4     0     0     0 -2.8769028708e+01  2.5599352178e+01 -1.0204813917e+02  1.0908695727e+02  1.7769900000e+00 0. 9.
      -16     1     4     0     0     0  1.1950909260e+01 -2.9975247467e+01 -2.5997535702e+02  2.6197046771e+02  0.0000000000e+00 0. 9.
#pdf    1   -2  1.814645e-01  3.867373e-01  8.137936e+01  2.516762e-01  2.459633e-01
</event>
<event>
     8  9999  1.000000e+00  9.926250e+01  7.825036e-03  1.248647e-01
        1    -1     0     0   101     0  0.0000000000e+00  0.0000000000e+00  1.3037089307e+02  1.3037089307e+02  0.0000000000e+00 0. 9.
       -1    -1     0     0     0   101  0.0000000000e+00  0.0000000000e+00 -7.8512487794e+01  7.8512487794e+01  0.0000000000e+00 0. 9.
       23     2     1     2     0     0 -1.8753036225e+01  3.5569908629e+01  5.8932771178e+00  1.0003203481e+02  9.1404499375e+01 0. 9.
       23     2     1     2     0     0  1.8753036225e+01 -3.5569908629e+01  4.5965128160e+01  1.0885134605e+02  9.0105092883e+01 0. 9.
       15     1     3     0     0     0  3.4535819522e+01  2.8883869387e+01 -4.5642868671e+00  4.5287869776e+01  1.7769900000e+00 0. 9.
      -15     1     3     0     0     0 -5.3288855747e+01  6.6860392420e+00  1.0457563985e+01  5.4744165036e+01  1.7769900000e+00 0. 9.
        3     1     4     0   102     0 -1.1445688434e+01 -4.1949100630e+01  6.0681232686e+01  7.4653819914e+01  5.0000000000e-01 0. 9.
       -3     1     4     0     0   102  3.0198724659e+01  6.3791920013e+00 -1.4716104527e+01  3.4197526140e+01  5.0000000000e-01 0. 9.
#pdf    1   -1  1.330315e-01  8.011478e-02  9.867027e+01  3.023171e-01  3.680830e-01
</event>
<event>
     8  9999  1.000000e+00  9.494254e+01  7.821087e-03  1.257170e-01
        2    -1     0     0   101     0  0.0000000000e+00  0.0000000000e+00  1.7959224505e+02  1.7959224505e+02  0.0000000000e+00 0. 9.
       -2    -1     0     0     0   101  0.0000000000e+00  0.0000000000e+00 -5.7048311188e+01  5.7048311188e+01  0.0000000000e+00 0. 9.
      -24     2     1     2     0     0 -2.8651614970e+01  4.1950164806e+01  2.0093116480e+01  9.6767746380e+01  7.9871972818e+01 0. 9.
       24     2     1     2     0     0  2.8651614970e+01 -4.1950164806e+01  1.0245081738e+02  1.3987280986e+02  8.0545028324e+01 0. 9.
        3     1     3     0   102     0 -4.0299417390e+01  2.4602643290e+01  4.4305931340e+01  6.4750279156e+01  5.0000000000e-01 0. 9.
       -4     1     3     0     0   102  1.1647802420e+01  1.7347521517e+01 -2.4212814860e+01  3.2017467224e+01  1.5000000000e+00 0. 9.
      -15     1     4     0     0     0  1.2542279537e+01  4.4369270810e+00 -1.0283180257e+01  1.6908476796e+01  1.7769900000e+00 0. 9.
       16     1     4     0     0     0  1.6109335433e+01 -4.6387091887e+01  1.1273399764e+02  1.2296433306e+02  0.0000000000e+00 0. 9.
#pdf    2   -2  1.832574e-01  5.821256e-02  9.465867e+01  5.083927e-01  5.788736e-01
</event>
<event>
     8  9999  1.000000e+00  8.785495e+01  7.814212e-03  1.272312e-01
        2    -1     0     0   101     0  0.0000000000e+00  0.0000000000e+00  2.6957056138e+02  2.6957056138e+02  0.0000000000e+00 0. 9.
       -2    -1     0     0     0   101  0.0000000000e+00  0.0000000000e+00 -6.4753404515e+01  6.4753404515e+01  0.0000000000e+00 0. 9.
      -24     2     1     2     0     0 -1.8405524204e+01  2.8050073157e+01 -2.3081165306e+01  8.9613262579e+01  7.9826228227e+01 0. 9.
       24     2     1     2     0     0  1.8405524204e+01 -2.8050073157e+01  2.2789832217e+02  2.4471070332e+02  8.2583976314e+01 0. 9.
        1     1     3     0   102     0 -9.8295373050e+00 -3.5430770927e+00  2.7467239719e+01  2.9389306843e+01  3.3000000000e-01 0. 9.
       -2     1     3     0     0   102 -8.5759868985e+00  3.1593150250e+01 -5.0548405025e+01  6.0223955737e+01  3.3000000000e-01 0. 9.
       -3     1     4     0     0   103  3.0399418280e+01 -3.5753233826e+01  5.9873521010e+01  7.6075665484e+01  5.0000000000e-01 0. 9.
        4     1     4     0   103     0 -1.1993894076e+01  7.7031606683e+00  1.6802480116e+02  1.6863503783e+02  1.5000000000e+00 0. 9.
#pdf    2   -2  2.750720e-01  6.607490e-02  8.658982e+01  3.951499e-01  5.767932e-01
</event>
<event>
     8  9999  1.000000e+00  8.470661e+01  7.810982e-03  1.279561e-01
        2    -1     0     0   101     0  0.0000000000e+00  0.0000000000e+00  2.4729883980e+01  2.4729883980e+01  0.0000000000e+00 0. 9.
       -2    -1     0     0     0   101  0.0000000000e+00  0.0000000000e+00 -4.4530549994e+02  4.4530549994e+02  0.0000000000e+00 0. 9.
      -24     2     1     2     0     0  2.9817073460e+01  5.1715249816e-01 -3.4856267928e+02  3.5864193259e+02  7.8985879152e+01 0. 9.
       24     2     1     2     0     0 -2.9817073460e+01 -5.1715249816e-01 -7.2012936677e+01  1.1139345133e+02  7.9582112527e+01 0. 9.
       13     1     3     0     0     0  3.7726808230e+01 -2.5926626681e+01 -1.2027706517e+02  1.2869376675e+02  1.0566000000e-01 0. 9.
      -14     1     3     0     0     0 -7.9097347708e+00  2.6443779179e+01 -2.2828561412e+02  2.2994816584e+02  0.0000000000e+00 0. 9.
      -15     1     4     0     0     0  2.7101667174e+01  5.6262549990e+00 -2.3640781355e+01  3.6444469340e+01  1.7769900000e+00 0. 9.
       16     1     4     0     0     0 -5.6918740634e+01 -6.1434074972e+00 -4.8372155322e+01  7.4948981991e+01  0.0000000000e+00 0. 9.
#pdf    2   -2  2.523458e-02  4.543934e-01  8.442804e+01  6.136211e-01  1.681101e-01
</event>
<event>
     8  9999  1.000000e+00  9.651049e+01  7.822541e-03  1.254019e-01
        1    -1     0     0   101     0  0.0000000000e+00  0.0000000000e+00  3.0120433158e+02  3.0120433158e+02  0.0000000000e+00 0. 9.
       -1    -1     0     0     0   101  0.0000000000e+00  0.0000000000e+00 -3.4050253808e+01  3.4050253808e+01  0.0000000000e+00 0. 9.
      -24     2     1     2     0     0  3.6789549877e+01  3.3407947103e+01  1.8289493050e+02  2.0626756925e+02  8.1401428792e+01 0. 9.
       24     2     1     2     0     0 -3.6789549877e+01 -3.3407947103e+01  8.4259147267e+01  1.2898701614e+02  8.4074279805e+01 0. 9.
       13     1     3     0     0     0  3.7888441886e+01  5.8721583471e+01  1.3920998831e+02  1.5576646109e+02  1.0566000000e-01 0. 9.
      -14     1     3     0     0     0 -1.0988920092e+00 -2.5313636367e+01  4.3684942198e+01  5.0501108152e+01  0.0000000000e+00 0. 9.
       -1     1     4     0     0   102 -5.4819848216e+01 -4.8768637446e+01  6.9578846780e+01  1.0111834935e+02  3.3000000000e-01 0. 9.
        2     1     4     0   102     0  1.8030298339e+01  1.5360690343e+01  1.4680300487e+01  2.7868666786e+01  3.3000000000e-01 0. 9.
#pdf    1   -1  3.073514e-01  3.474516e-02  9.537167e+01  1.312923e-01  4.560742e-01
</event>
<event>
     8  9999  1.000000e+00  8.393147e+01  7.810169e-03  1.281400e-01
        2    -1     0     0   101     0  0.0000000000e+00  0.0000000000e+00  1.6158133278e+02  1.6158133278e+02  0.0000000000e+00 0. 9.
       -2    -1     0     0     0   101  0.0000000000e+00  0.0000000000e+00 -4.6630290353e+01  4.6630290353e+01  0.0000000000e+00 0. 9.
      -24     2     1     2     0     0  2.0025681100e+01  7.5545527678e+00  3.1554790277e+01  9.0556795008e+01  8.2138475525e+01 0. 9.
       24     2     1     2     0     0 -2.0025681100e+01 -7.5545527678e+00  8.3396252154e+01  1.1765482813e+02  8.0184939594e+01 0. 9.
       13     1     3     0     0     0 -1.0122984132e+01 -1.7230632202e+01  4.5031454651e+01  4.9266749090e+01  1.0566000000e-01 0. 9.
      -14     1     3     0     0     0  3.0148665232e+01  2.4785184970e+01 -1.3476664375e+01  4.1290045918e+01  0.0000000000e+00 0. 9.
      -13     1     4     0     0     0  2.9170593508e+00 -3.6860649215e+01  1.5229889499e+01  3.9989716103e+01  1.0566000000e-01 0. 9.
       14     1     4     0     0     0 -2.2942740451e+01  2.9306096447e+01  6.8166362655e+01  7.7665112026e+01  0.0000000000e+00 0. 9.
#pdf    2   -2  1.648789e-01  4.758193e-02  8.299231e+01  5.299900e-01  5.832265e-01
</event>
<event>
     8  9999  1.000000e+00  9.619162e+01  7.822247e-03  1.254654e-01
        2    -1     0     0   101     0  0.0000000000e+00  0.0000000000e+00  9.5839897980e+01  9.5839897980e+01  0.0000000000e+00 0. 9.
       -2    -1     0     0     0   101  0.0000000000e+00  0.0000000000e+00 -1.0091812516e+02  1.0091812516e+02  0.0000000000e+00 0. 9.
      -24     2     1     2     0     0  5.1260778894e+01 -1.2975112688e+01  1.7947093362e+01  9.7290614461e+01  7.9670223421e+01 0. 9.
       24     2     1     2     0     0 -5.1260778894e+01  1.2975112688e+01 -2.3025320544e+01  9.9467408681e+01  8.1040600945e+01 0. 9.
        1     1     3     0   102     0  2.5925832304e+01 -2.8708233912e+01  4.3359834859e+01  5.8107621307e+01  3.3000000000e-01 0. 9.
       -2     1     3     0     0   102  2.5334946590e+01  1.5733121223e+01 -2.5412741497e+01  3.9182993154e+01  3.3000000000e-01 0. 9.
       -3     1     4     0     0   103  3.6897661069e+00  3.6703608882e+01 -8.7283698731e+00  3.7910469787e+01  5.0000000000e-01 0. 9.
        4     1     4     0   103     0 -5.4950545001e+01 -2.3728496193e+01 -1.4296950671e+01  6.1556938894e+01  1.5000000000e+00 0. 9.
#pdf    2   -2  9.779581e-02  1.029777e-01  9.562095e+01  5.677966e-01  5.659514e-01
</event>
<event>
     8  9999  1.000000e+00  1.269706e+02  7.846955e-03  1.203505e-01
        1    -1     0     0   101     0  0.0000000000e+00  0.0000000000e+00  3.3850412536e+02  3.3850412536e+02  0.0000000000e+00 0. 9.
       -1    -1     0     0     0   101  0.0000000000e+00  0.0000000000e+00 -1.5003059186e+02  1.5003059186e+02  0.0000000000e+00 0. 9.
       23     2     1     2     0     0 -4.7835463321e+01  7.4778467430e+01 -1.0756528863e+02  1.6642368693e+02  9.0810250025e+01 0. 9.
       23     2     1     2     0     0  4.7835463321e+01 -7.4778467430e+01  2.9603882213e+02  3.2211103029e+02  9.0755059839e+01 0. 9.
        4     1     3     0   102     0 -5.2600094770e+01  2.0159754215e+01 -1.4154776684e+01  5.8101577971e+01  1.5000000000e+00 0. 9.
       -4     1     3     0     0   102  4.7646314490e+00  5.4618713215e+01 -9.3410511950e+01  1.0832210896e+02  1.5000000000e+00 0. 9.
        4     1     4     0   103     0 -1.7676058753e+01 -2.2722784390e+01  1.5859011879e+02  1.6118884502e+02  1.5000000000e+00 0. 9.
       -4     1     4     0     0   103  6.5511522074e+01 -5.2055683039e+01  1.3744870335e+02  1.6092218527e+02  1.5000000000e+00 0. 9.
#pdf    1   -1  3.454124e-01  1.530924e-01  1.269509e+02  1.004097e-01  2.751295e-01
</event>
<event>
     8  9999  1.000000e+00  9.596430e+01  7.822037e-03  1.255109e-01
        2    -1     0     0   101     0  0.0000000000e+00  0.0000000000e+00  2.0864342994e+02  2.0864342994e+02  0.0000000000e+00 0. 9.
       -1    -1     0     0     0   101  0.0000000000e+00  0.0000000000e+00 -4.4371389086e+01  4.4371389086e+01  0.0000000000e+00 0. 9.
       23     2     1     2     0     0  4.4366076521e+01 -1.8479553056e+01  8.0785593306e+01  1.2968349718e+02  8.9340107045e+01 0. 9.
       24     2     1     2     0     0 -4.4366076521e+01  1.8479553056e+01  8.3486447545e+01  1.2333132185e+02  7.7011592621e+01 0. 9.
        4     1     3     0   102     0  3.5306229848e+01  1.8483340554e+00  9.6244985413e+01  1.0254410476e+02  1.5000000000e+00 0. 9.
       -4     1     3     0     0   102  9.0598466725e+00 -2.0327887111e+01 -1.5459392106e+01  2.7139392411e+01  1.5000000000e+00 0. 9.
       -1     1     4     0     0   103 -2.2282123203e+01  9.2330080579e+00 -1.0525620988e+01  2.6318036580e+01  3.3000000000e-01 0. 9.
        2     1     4     0   103     0 -2.2083953318e+01  9.2465449981e+00  9.4012068534e+01  9.7013285268e+01  3.3000000000e-01 0. 9.
#pdf    2   -1  2.129015e-01  4.527693e-02  9.077790e+01  4.759813e-01  4.278536e-01
</event>
<event>
     8  9999  1.000000e+00  1.114907e+02  7.835364e-03  1.226930e-01
        2    -1     0     0   101     0  0.0000000000e+00  0.0000000000e+00  4.3089052423e+02  4.3089052423e+02  0.0000000000e+00 0. 9.
       -2    -1     0     0     0   101  0.0000000000e+00  0.0000000000e+00 -3.1009443596e+01  3.1009443596e+01  0.0000000000e+00 0. 9.
       23     2     1     2     0     0 -6.2279444759e+01  2.2224348118e+01  1.3975796192e+02  1.7907624911e+02  9.0351337483e+01 0. 9.
       23     2     1     2     0     0  6.2279444759e+01 -2.2224348118e+01  2.6012311871e+02  2.8282371872e+02  8.9177172484e+01 0. 9.
        3     1     3     0   102     0  5.3016639480e+00 -1.1398828431e+01  8.4739793268e+01  8.5668684438e+01  5.0000000000e-01 0. 9.
       -3     1     3     0     0   102 -6.7581108707e+01  3.3623176550e+01  5.5018168652e+01  9.3407564668e+01  5.0000000000e-01 0. 9.
       14     1     4     0     0     0  3.7841813980e+01  3.2112575287e+01  9.3276048985e+01  1.0565813594e+02  0.0000000000e+00 0. 9.
      -14     1     4     0     0     0  2.4437630780e+01 -5.4336923405e+01  1.6684706972e+02  1.7716558277e+02  0.0000000000e+00 0. 9.
#pdf    2   -2  4.396842e-01  3.164229e-02  1.110190e+02  1.762335e-01  6.031697e-01
</event>
<event>
     8  9999  1.000000e+00  1.128264e+02  7.836424e-03  1.224747e-01
        2    -1     0     0   101     0  0.0000000000e+00  0.0000000000e+00  1.8271082214e+02  1.8271082214e+02  0.0000000000e+00 0. 9.
       -2    -1     0     0     0   101  0.0000000000e+00  0.0000000000e+00 -7.0021469360e+01  7.0021469360e+01  0.0000000000e+00 0. 9.
      -24     2     1     2     0     0  7.7163952348e+01 -1.9325725007e+01  4.7870744749e+01  1.2332094741e+02  8.1170737823e+01 0. 9.
       24     2     1     2     0     0 -7.7163952348e+01  1.9325725007e+01  6.4818608032e+01  1.2941134409e+02  7.8854833984e+01 0. 9.
       11     1     3     0     0     0  8.5304039771e+01 -1.9898311794e+01  1.4276556563e+01  8.8749884964e+01  5.1100000000e-04 0. 9.
      -12     1     3     0     0     0 -8.1400874235e+00  5.7258678681e-01  3.3594188186e+01  3.4571062448e+01  0.0000000000e+00 0. 9.
      -11     1     4     0     0     0 -7.5212398154e+01  4.4071079712e+01  5.1262621609e+01  1.0112873616e+02  5.1100000000e-04 0. 9.
       12     1     4     0     0     0 -1.9515541936e+00 -2.4745354705e+01  1.3555986423e+01  2.8282607927e+01  0.0000000000e+00 0. 9.
#pdf    2   -2  1.864396e-01  7.145048e-02  1.120082e+02  5.000358e-01  5.741181e-01
</event>
<event>
     8  9999  1.000000e+00  9.584785e+01  7.821929e-03  1.255342e-01
        2    -1     0     0   101     0  0.0000000000e+00  0.0000000000e+00  1.7969465100e+02  1.7969465100e+02  0.0000000000e+00 0. 9.
       -2    -1     0     0     0   101  0.0000000000e+00  0.0000000000e+00 -5.3284009636e+01  5.3284009636e+01  0.0000000000e+00 0. 9.
      -24     2     1     2     0     0 -4.5699393102e+01  2.4025615580e+01  3.9990349699e+01  1.0419456786e+02  8.1188762575e+01 0. 9.
       24     2     1     2     0     0  4.5699393102e+01 -2.4025615580e+01  8.6420291669e+01  1.2878409278e+02  8.0319431069e+01 0. 9.
       15     1     3     0     0     0 -3.4500184261e+00 -2.8002408839e+01  1.8607900581e+01  3.3844485303e+01  1.7769900000e+00 0. 9.
      -16     1     3     0     0     0 -4.2249374676e+01  5.2028024419e+01  2.1382449118e+01  7.0350082556e+01  0.0000000000e+00 0. 9.
      -11     1     4     0     0     0  3.4235711959e+00 -3.6961798044e+01  6.8359305652e+00  3.7744208845e+01  5.1100000000e-04 0. 9.
       12     1     4     0     0     0  4.2275821906e+01  1.2936182464e+01  7.9584361104e+01  9.1039883935e+01  0.0000000000e+00 0. 9.
#pdf    2   -2  1.833619e-01  5.437144e-02  9.548233e+01  5.080271e-01  5.803587e-01
</event>
<event>
     8  9999  1.000000e+00  1.088370e+02  7.833220e-03  1.231371e-01
        2    -1     0     0   101     0  0.0000000000e+00  0.0000000000e+00  4.8425383117e+01  4.8425383117e+01  0.0000000000e+00 0. 9.
       -2    -1     0     0     0   101  0.0000000000e+00  0.0000000000e+00 -3.6362624726e+02  3.6362624726e+02  0.0000000000e+00 0. 9.
      -24     2     1     2     0     0  5.4547283614e+01  4.8131431342e+01 -2.7604653488e+02  2.9694853153e+02  8.1760015439e+01 0. 9.
       24     2     1     2     0     0 -5.4547283614e+01 -4.8131431342e+01 -3.9154329268e+01  1.1510309885e+02  8.0147495487e+01 0. 9.
        3     1     3     0   102     0  7.4938356196e+00 -1.9041214044e+01 -2.2284646908e+01  3.0258567256e+01  5.0000000000e-01 0. 9.
       -4     1     3     0     0   102  4.7053447994e+01  6.7172645386e+01 -2.5376188797e+02  2.6668996427e+02  1.5000000000e+00 0. 9.
       -1     1     4     0     0   103 -5.6541661414e+01  7.8508960218e-01 -8.0967909936e+00  5.7124799917e+01  3.3000000000e-01 0. 9.
        2     1     4     0   103     0  1.9943777998e+00 -4.8916520944e+01 -3.1057538275e+01  5.7978298938e+01  3.3000000000e-01 0. 9.
#pdf    2   -2  4.941366e-02  3.710472e-01  1.082389e+02  5.831389e-01  2.566638e-01
</event>
<event>
     8  9999  1.000000e+00  1.020513e+02  7.827497e-03  1.243398e-01
        1    -1     0     0   101     0  0.0000000000e+00  0.0000000000e+00  6.7633365597e+01  6.7633365597e+01  0.0000000000e+00 0. 9.
       -2    -1     0     0     0   101  0.0000000000e+00  0.0000000000e+00 -2.5655628041e+02  2.5655628041e+02  0.0000000000e+00 0. 9.
       23     2     1     2     0     0  3.8420522424e+00 -5.0603071003e+00  8.4715080330e+00  1.0160348865e+02  1.0105015776e+02 0. 9.
      -24     2     1     2     0     0 -3.8420522424e+00  5.0603071003e+00 -1.9739442285e+02  2.2258615736e+02  1.0266290081e+02 0. 9.
        4     1     3     0   102     0  2.2984566624e+01  1.3592032992e+01  4.7361371286e+01  5.4391020894e+01  1.5000000000e+00 0. 9.
       -4     1     3     0     0   102 -1.9142514382e+01 -1.8652340092e+01 -3.8889863253e+01  4.7212467756e+01  1.5000000000e+00 0. 9.
        3     1     4     0   103     0 -1.6829551392e+01  5.1626342108e+01 -1.1113756426e+02  1.2369446709e+02  5.0000000000e-01 0. 9.
       -4     1     4     0     0   103  1.2987499149e+01 -4.6566035008e+01 -8.6256858589e+01  9.8891690269e+01  1.5000000000e+00 0. 9.
#pdf    1   -2  6.901364e-02  2.617921e-01  1.012497e+02  3.840435e-01  4.080411e-01
</event>
<event>
     8  9999  1.000000e+00  8.079522e+01  7.806802e-03  1.289076e-01
        2    -1     0     0   101     0  0.0000000000e+00  0.0000000000e+00  8.5470665294e+01  8.5470665294e+01  0.0000000000e+00 0. 9.
       -2    -1     0     0     0   101  0.0000000000e+00  0.0000000000e+00 -1.4954636088e+02  1.4954636088e+02  0.0000000000e+00 0. 9.
      -24     2     1     2     0     0  4.4621744015e+00  1.2439607133e+01 -1.1433245438e+02  1.4028878849e+02  8.0214582378e+01 0. 9.
       24     2     1     2     0     0 -4.4621744015e+00 -1.2439607133e+01  5.0256758794e+01  9.4728237682e+01  7.9202540261e+01 0. 9.
        3     1     3     0   102     0 -3.7279313174e+01  1.2829114904e+01 -5.8954485660e+01  7.0924006933e+01  5.0000000000e-01 0. 9.
       -4     1     3     0     0   102  4.1741487575e+01 -3.8950777126e-01 -5.5377968718e+01  6.9364781558e+01  1.5000000000e+00 0. 9.
       -3     1     4     0     0   103  1.6589894388e+01  3.5029839224e+00 -1.6042532383e+01  2.3347555277e+01  5.0000000000e-01 0. 9.
        4     1     4     0   103     0 -2.1052068790e+01 -1.5942591055e+01  6.6299291177e+01  7.1380682404e+01  1.5000000000e+00 0. 9.
#pdf    2   -2  8.721496e-02  1.525983e-01  8.029755e+01  5.728489e-01  5.411220e-01
</event>
<event>
     8  9999  1.000000e+00  9.350512e+01  7.819735e-03  1.260118e-01
        2    -1     0     0   101     0  0.0000000000e+00  0.0000000000e+00  1.7335873357e+02  1.7335873357e+02  0.0000000000e+00 0. 9.
       -1    -1     0     0     0   101  0.0000000000e+00  0.0000000000e+00 -6.0443417776e+01  6.0443417776e+01  0.0000000000e+00 0. 9.
       23     2     1     2     0     0 -2.0764137754e+01 -2.4188459070e+01  1.1716090295e+01  9.9185249045e+01  9.3189140395e+01 0. 9.
       24     2     1     2     0     0  2.0764137754e+01  2.4188459070e+01  1.0119922550e+02  1.3461690230e+02  8.2850444625e+01 0. 9.
        5     1     3     0   102     0 -2.4660260469e+01 -3.6905147857e+01  4.4774970051e+01  6.3229394492e+01  4.8000000000e+00 0. 9.
       -5     1     3     0     0   102  3.8961227150e+00  1.2716688786e+01 -3.3058879756e+01  3.5955854553e+01  4.8000000000e+00 0. 9.
      -11     1     4     0     0     0  2.6733700255e+01 -2.5374202171e+01  2.9294846908e+01  4.7082150766e+01  5.1100000000e-04 0. 9.
       12     1     4     0     0     0 -5.9695625003e+00  4.9562661241e+01  7.1904378595e+01  8.7534751538e+01  0.0000000000e+00 0. 9.
#pdf    2   -1  1.768967e-01  6.167696e-02  8.877177e+01  5.167641e-01  3.965956e-01
</event>
<event>
     8  9999  1.000000e+00  8.816702e+01  7.814526e-03  1.271612e-01
        2    -1     0     0   101     0  0.0000000000e+00  0.0000000000e+00  1.0542276939e+02  1.0542276939e+02  0.0000000000e+00 0. 9.
       -1    -1     0     0     0   101  0.0000000000e+00  0.0000000000e+00 -1.3694560044e+02  1.3694560044e+02  0.0000000000e+00 0. 9.
       23     2     1     2     0     0 -1.4731683136e+01  1.1446559606e+01  6.5821438416e+01  1.1437377627e+02  9.1656165798e+01 0. 9.
       24     2     1     2     0     0  1.4731683136e+01 -1.1446559606e+01 -9.7344269462e+01  1.2799459356e+02  8.0985572599e+01 0. 9.
        5     1     3     0   102     0 -3.3064852625e+01 -3.0177937793e+01  4.6499151735e+01  6.4724056738e+01  4.8000000000e+00 0. 9.
       -5     1     3     0     0   102  1.8333169488e+01  4.1624497400e+01  1.9322286681e+01  4.9649719535e+01  4.8000000000e+00 0. 9.
       -1     1     4     0     0   103 -2.5669273247e+01  1.0088796470e+01 -6.8595586094e+01  7.3933475063e+01  3.3000000000e-01 0. 9.
        2     1     4     0   103     0  4.0400956383e+01 -2.1535356076e+01 -2.8748683368e+01  5.4061118499e+01  3.3000000000e-01 0. 9.
#pdf    2   -1  1.075743e-01  1.397404e-01  8.310661e+01  5.663801e-01  2.974529e-01
</event>
<event>
     8  9999  1.000000e+00  9.175918e+01  7.818064e-03  1.263781e-01
        2    -1     0     0   101     0  0.0000000000e+00  0.0000000000e+00  1.9171202411e+02  1.9171202411e+02  0.0000000000e+00 0. 9.
       -2    -1     0     0     0   101  0.0000000000e+00  0.0000000000e+00 -7.5963220805e+01  7.5963220805e+01  0.0000000000e+00 0. 9.
      -24     2     1     2     0     0 -3.2399513059e+01  3.0541464750e+01 -2.9058363817e+01  9.6234549046e+01  8.0213405406e+01 0. 9.
       24     2     1     2     0     0  3.2399513059e+01 -3.0541464750e+01  1.4480716712e+02  1.7144069586e+02  8.0251398957e+01 0. 9.
        1     1     3     0   102     0  2.3062024090e+00  3.7982149073e+01 -4.3604115543e+01  5.7873914763e+01  3.3000000000e-01 0. 9.
       -2     1     3     0     0   102 -3.4705715468e+01 -7.4406843234e+00  1.4545751726e+01  3.8360634283e+01  3.3000000000e-01 0. 9.
      -13     1     4     0     0     0  4.3110483905e+00  1.1274091729e+01 -5.2433860427e+00  1.3160339804e+01  1.0566000000e-01 0. 9.
       14     1     4     0     0     0  2.8088464668e+01 -4.1815556478e+01  1.5005055316e+02  1.5828035606e+02  0.0000000000e+00 0. 9.
#pdf    2   -2  1.956245e-01  7.751349e-02  9.174257e+01  4.959074e-01  5.738443e-01
</event>
<event>
     8  9999  1.000000e+00  1.016284e+02  7.827128e-03  1.244182e-01
       -1    -1     0     0     0   101  0.0000000000e+00  0.0000000000e+00  6.3987407077e+01  6.3987407077e+01  0.0000000000e+00 0. 9.
        2    -1     0     0   101     0  0.0000000000e+00  0.0000000000e+00 -1.9359519115e+02  1.9359519115e+02  0.0000000000e+00 0. 9.
       23     2     1     2     0     0  5.9872634489e+01  7.9956162235e-01 -1.1809504087e+02  1.5681483726e+02  8.4018348281e+01 0. 9.
       24     2     1     2     0     0 -5.9872634489e+01 -7.9956162235e-01 -1.1512743203e+01  1.0076776097e+02  8.0226097590e+01 0. 9.
        1     1     3     0   102     0  1.3860750428e+01  2.4462645705e+01 -9.6906151773e+01  1.0090318423e+02  3.3000000000e-01 0. 9.
       -1     1     3     0     0   102  4.6011884061e+01 -2.3663084082e+01 -2.1188889100e+01  5.5911653029e+01  3.3000000000e-01 0. 9.
      -15     1     4     0     0     0 -1.3415947095e+01  2.1354465184e+01  2.6619933892e+01  3.6712115080e+01  1.7769900000e+00 0. 9.
       16     1     4     0     0     0 -4.6456687394e+01 -2.2154026807e+01 -3.8132677095e+01  6.4055645885e+01  0.0000000000e+00 0. 9.
#pdf   -1    2  6.529327e-02  1.975461e-01  1.001079e+02  1.742467e-01  2.985021e-02
</event>
<event>
     8  9999  1.000000e+00  1.039912e+02  7.829170e-03  1.239856e-01
        2    -1     0     0   101     0  0.0000000000e+00  0.0000000000e+00  3.9176394662e+01  3.9176394662e+01  0.0000000000e+00 0. 9.
       -2    -1     0     0     0   101  0.0000000000e+00  0.0000000000e+00 -2.8141430840e+02  2.8141430840e+02  0.0000000000e+00 0. 9.
       23     2     1     2     0     0 -3.7002637844e+01  3.2249875618e+01 -9.8835994445e+01  1.4338612827e+02  9.1552052390e+01 0. 9.
       23     2     1     2     0     0  3.7002637844e+01 -3.2249875618e+01 -1.4340191929e+02  1.7720457479e+02  9.1804690438e+01 0. 9.
        4     1     3     0   103     0 -5.7795009377e+01  3.1908610899e+01 -3.2012773314e+01  7.3385899283e+01  1.5000000000e+00 0. 9.
       -4     1     3     0     0   103  2.0792371532e+01  3.4126471870e-01 -6.6823221131e+01  7.0000228984e+01  1.5000000000e+00 0. 9.
        4     1     4     0   104     0  1.1046300128e+01 -6.2533768345e+01 -7.8085009613e+01  1.0065789416e+02  1.5000000000e+00 0. 9.
       -4     1     4     0     0   104  2.5956337716e+01  3.0283892728e+01 -6.5316909680e+01  7.6546680637e+01  1.5000000000e+00 0. 9.
#pdf    2   -2  3.997591e-02  2.871575e-01  1.038799e+02  5.905145e-01  3.717981e-01
</event>
<event>
     8  9999  1.000000e+00  8.889946e+01  7.815259e-03  1.269982e-01
        2    -1     0     0   101     0  0.0000000000e+00  0.0000000000e+00  3.5384344700e+01  3.5384344700e+01  0.0000000000e+00 0. 9.
       -2    -1     0     0     0   101  0.0000000000e+00  0.0000000000e+00 -2.4172500950e+02  2.4172500950e+02  0.0000000000e+00 0. 9.
      -24     2     1     2     0     0 -2.9985413036e+01  2.6219946940e+01 -1.3843724932e+02  1.6318244163e+02  7.6661767832e+01 0. 9.
       24     2     1     2     0     0  2.9985413036e+01 -2.6219946940e+01 -6.7903415484e+01  1.1392691257e+02  8.2352030696e+01 0. 9.
        3     1     3     0   102     0 -1.3333623099e+01 -2.7093343236e+01 -4.2044988244e+01  5.1767420151e+01  5.0000000000e-01 0. 9.
       -4     1     3     0     0   102 -1.6651789937e+01  5.3313290177e+01 -9.6392261072e+01  1.1141502148e+02  1.5000000000e+00 0. 9.
       -3     1     4     0     0   103  8.1840717118e+00 -2.9934476411e+01 -8.1986859465e+01  8.7664970385e+01  5.0000000000e-01 0. 9.
        4     1     4     0   103     0  2.1801341324e+01  3.7145294706e+00  1.4083443980e+01  2.6261942180e+01  1.5000000000e+00 0. 9.
#pdf    2   -2  3.610647e-02  2.466582e-01  8.639234e+01  5.931569e-01  4.342334e-01
</event>
<event>
     8  9999  1.000000e+00  1.010061e+02  7.826582e-03  1.245343e-01
        1    -1     0     0   101     0  0.0000000000e+00  0.0000000000e+00  9.2656195247e+01  9.2656195247e+01  0.0000000000e+00 0. 9.
       -1    -1     0     0     0   101  0.0000000000e+00  0.0000000000e+00 -1.2292321576e+02  1.2292321576e+02  0.0000000000e+00 0. 9.
      -24     2     1     2     0     0  3.9862306284e+00 -6.2375361726e+01  1.9703586421e+01  1.0265122312e+02  7.9009281133e+01 0. 9.
       24     2     1     2     0     0 -3.9862306284e+00  6.2375361726e+01 -4.9970606934e+01  1.1292818789e+02  7.9681480136e+01 0. 9.
        3     1     3     0   102     0 -3.0944591645e+00  1.7626348817e+01  1.2837490907e+01  2.2029866611e+01  5.0000000000e-01 0. 9.
       -4     1     3     0     0   102  7.0806897929e+00 -8.0001710543e+01  6.8660955146e+00  8.0621356509e+01  1.5000000000e+00 0. 9.
       -3     1     4     0     0   103 -3.1493884104e+01  6.2884133997e+01 -2.2063713905e+01  7.3711169546e+01  5.0000000000e-01 0. 9.
        4     1     4     0   103     0  2.7507653476e+01 -5.0877227111e-01 -2.7906893028e+01  3.9217018340e+01  1.5000000000e+00 0. 9.
#pdf    1   -1  9.454714e-02  1.254319e-01  1.007425e+02  3.486258e-01  3.108682e-01
</event>
<event>
     8  9999  1.000000e+00  8.120104e+01  7.807245e-03  1.288061e-01
        1    -1     0     0   101     0  0.0000000000e+00  0.0000000000e+00  1.9879728895e+02  1.9879728895e+02  0.0000000000e+00 0. 9.
       -1    -1     0     0     0   101  0.0000000000e+00  0.0000000000e+00 -4.7318874245e+01  4.7318874245e+01  0.0000000000e+00 0. 9.
      -24     2     1     2     0     0 -9.6112484369e+00 -1.9091439225e+01  1.4404247833e+02  1.6615338886e+02  8.0011586163e+01 0. 9.
       24     2     1     2     0     0  9.6112484369e+00  1.9091439225e+01  7.4359363782e+00  7.9962774331e+01  7.6693500251e+01 0. 9.
        1     1     3     0   102     0  2.4752376834e+00 -4.7909338633e+01  6.2232528453e+01  7.8577528769e+01  3.3000000000e-01 0. 9.
       -2     1     3     0     0   102 -1.2086486120e+01  2.8817899408e+01  8.1809949873e+01  8.7575860095e+01  3.3000000000e-01 0. 9.
      -13     1     4     0     0     0 -6.5833547797e+00  4.3742085639e+01  1.9182855518e+01  4.8215181489e+01  1.0566000000e-01 0. 9.
       14     1     4     0     0     0  1.6194603217e+01 -2.4650646414e+01 -1.1746919140e+01  3.1747592842e+01  0.0000000000e+00 0. 9.
#pdf    1   -1  2.028544e-01  4.828457e-02  7.961628e+01  2.295212e-01  4.214404e-01
</event>
<event>
     8  9999  1.000000e+00  1.066245e+02  7.831393e-03  1.235183e-01
        1    -1     0     0   101     0  0.0000000000e+00  0.0000000000e+00  1.2673746543e+02  1.2673746543e+02  0.0000000000e+00 0. 9.
       -1    -1     0     0     0   101  0.0000000000e+00  0.0000000000e+00 -1.4725648606e+02  1.4725648606e+02  0.0000000000e+00 0. 9.
      -24     2     1     2     0     0 -6.2388630346e+01  3.2071566547e+01  7.5382321480e+01  1.3064042430e+02  8.0395892259e+01 0. 9.
       24     2     1     2     0     0  6.2388630346e+01 -3.2071566547e+01 -9.5901342109e+01  1.4335352719e+02  8.0201245385e+01 0. 9.
        1     1     3     0   102     0 -3.4873200606e+01  3.9709722837e+01  8.5354349485e+01  1.0039161362e+02  3.3000000000e-01 0. 9.
       -2     1     3     0     0   102 -2.7515429740e+01 -7.6381562904e+00 -9.9720280045e+00  3.0248810684e+01  3.3000000000e-01 0. 9.
       -3     1     4     0     0   103  7.9256142575e+01 -2.9496364850e+01 -6.0359149237e+01  1.0389922315e+02  5.0000000000e-01 0. 9.
        4     1     4     0   103     0 -1.6867512229e+01 -2.5752016970e+00 -3.5542192873e+01  3.9454304034e+01  1.5000000000e+00 0. 9.
#pdf    1   -1  1.293239e-01  1.502617e-01  1.065512e+02  3.054172e-01  2.812820e-01
</event>
<event>
     8  9999  1.000000e+00  1.068470e+02  7.831579e-03  1.234795e-01
        2    -1     0     0   101     0  0.0000000000e+00  0.0000000000e+00  3.0548438859e+02  3.0548438859e+02  0.0000000000e+00 0. 9.
       -2    -1     0     0     0   101  0.0000000000e+00  0.0000000000e+00 -5.2880988249e+01  5.2880988249e+01  0.0000000000e+00 0. 9.
       23     2     1     2     0     0 -1.9511341145e+01 -5.7849440060e+01  2.2549779025e+02  2.5071147694e+02  9.0993082779e+01 0. 9.
       23     2     1     2     0     0  1.9511341145e+01  5.7849440060e+01  2.7105610092e+01  1.0765389990e+02  8.4423917919e+01 0. 9.
        5     1     3     0   102     0  1.5419935548e+01 -6.5866193082e+01  1.0578454849e+02  1.2565643837e+02  4.8000000000e+00 0. 9.
       -5     1     3     0     0   102 -3.4931276693e+01  8.0167530228e+00  1.1971324176e+02  1.2505503857e+02  4.8000000000e+00 0. 9.
        2     1     4     0   103     0  3.9885603635e+01  4.5540529558e+01 -1.2148242783e+01  6.1745363490e+01  3.3000000000e-01 0. 9.
       -2     1     4     0     0   103 -2.0374262490e+01  1.2308910501e+01  3.9253852875e+01  4.5908536410e+01  3.3000000000e-01 0. 9.
#pdf    2   -2  3.117188e-01  5.396019e-02  1.041856e+02  3.373632e-01  5.806204e-01
</event>
<event>
     8  9999  1.000000e+00  8.441069e+01  7.810673e-03  1.280261e-01
        2    -1     0     0   101     0  0.0000000000e+00  0.0000000000e+00  2.3814111554e+02  2.3814111554e+02  0.0000000000e+00 0. 9.
       -2    -1     0     0     0   101  0.0000000000e+00  0.0000000000e+00 -2.2549430140e+02  2.2549430140e+02  0.0000000000e+00 0. 9.
      -24     2     1     2     0     0  1.9393889136e+01 -1.2299746061e+01 -2.0955182696e+02  2.2632459962e+02  8.2361699363e+01 0. 9.
       24     2     1     2     0     0 -1.9393889136e+01  1.2299746061e+01  2.2219864109e+02  2.3731081733e+02  8.0104814017e+01 0. 9.
        1     1     3     0   102     0  4.2990668142e+00 -4.0720690689e+01 -5.5638212345e+01  6.9082387037e+01  3.3000000000e-01 0. 9.
       -2     1     3     0     0   102  1.5094822322e+01  2.8420944628e+01 -1.5391361461e+02  1.5724221258e+02  3.3000000000e-01 0. 9.
      -11     1     4     0     0     0 -3.3986234461e+01  3.0874454438e+01  7.2899956313e+01  8.6155090972e+01  5.1100000000e-04 0. 9.
       12     1     4     0     0     0  1.4592345325e+01 -1.8574708377e+01  1.4929868478e+02  1.5115572636e+02  0.0000000000e+00 0. 9.
#pdf    2   -2  2.430011e-01  2.300962e-01  8.333179e+01  4.403959e-01  4.573016e-01
</event>
<event>
     8  9999  1.000000e+00  9.708588e+01  7.823068e-03  1.252879e-01
       -3    -1     0     0     0   101  0.0000000000e+00  0.0000000000e+00  2.3996334011e+02  2.3996334011e+02  0.0000000000e+00 0. 9.
        3    -1     0     0   101     0  0.0000000000e+00  0.0000000000e+00 -4.0311022668e+01  4.0311022668e+01  0.0000000000e+00 0. 9.
      -24     2     1     2     0     0  3.8835493028e+01  3.8734713608e+01  7.6894421061e+01  1.2343622850e+02  7.9468087679e+01 0. 9.
       24     2     1     2     0     0 -3.8835493028e+01 -3.8734713608e+01  1.2275789638e+02  1.5683813427e+02  8.0747295200e+01 0. 9.
       15     1     3     0     0     0  2.7476620688e+01  6.3483031369e+01  5.8040279447e+01  9.0315511890e+01  1.7769900000e+00 0. 9.
      -16     1     3     0     0     0  1.1358872340e+01 -2.4748317761e+01  1.8854141614e+01  3.3120716611e+01  0.0000000000e+00 0. 9.
       -1     1     4     0     0   102 -1.2412184995e+01 -4.2841836454e+01  1.2220372651e+02  1.3008975732e+02  3.3000000000e-01 0. 9.
        2     1     4     0   102     0 -2.6423308033e+01  4.1071228462e+00  5.5416987178e-01  2.6748376955e+01  3.3000000000e-01 0. 9.
#pdf   -3    3  2.448606e-01  4.113370e-02  9.655957e+01  1.193228e-02  1.478859e-01
</event>
<event>
     8  9999  1.000000e+00  9.430179e+01  7.820487e-03  1.258477e-01
        2    -1     0     0   101     0  0.0000000000e+00  0.0000000000e+00  7.3062787192e+01  7.3062787192e+01  0.0000000000e+00 0. 9.
       -2    -1     0     0     0   101  0.0000000000e+00  0.0000000000e+00 -1.2367340732e+02  1.2367340732e+02  0.0000000000e+00 0. 9.
      -24     2     1     2     0     0  1.7719507302e-01 -5.4965000032e+01 -1.2535165881e+01  9.2332823597e+01  7.3123438809e+01 0. 9.
       24     2     1     2     0     0 -1.7719507302e-01  5.4965000032e+01 -3.8075454249e+01  1.0440337092e+02  8.0181924497e+01 0. 9.
        3     1     3     0   102     0  3.5084381055e+01 -3.3725598103e+01  2.5887931021e+00  4.8736860908e+01  5.0000000000e-01 0. 9.
       -4     1     3     0     0   102 -3.4907185982e+01 -2.1239401928e+01 -1.5123958983e+01  4.3595962689e+01  1.5000000000e+00 0. 9.
       -3     1     4     0     0   103  1.4003334321e+01 -7.0290037048e+00 -3.7656396848e+01  4.0789146703e+01  5.0000000000e-01 0. 9.
        4     1     4     0   103     0 -1.4180529394e+01  6.1994003737e+01 -4.1905740020e-01  6.3614224214e+01  1.5000000000e+00 0. 9.
#pdf    2   -2  7.455386e-02  1.261974e-01  9.147798e+01  5.745538e-01  5.558872e-01
</event>
<event>
     8  9999  1.000000e+00  9.214794e+01  7.818438e-03  1.262958e-01
        2    -1     0     0   101     0  0.0000000000e+00  0.0000000000e+00  3.9550930938e+01  3.9550930938e+01  0.0000000000e+00 0. 9.
       -2    -1     0     0     0   101  0.0000000000e+00  0.0000000000e+00 -2.2533061597e+02  2.2533061597e+02  0.0000000000e+00 0. 9.
      -24     2     1     2     0     0 -1.2094068880e+01  4.4261595566e+01 -1.2182266376e+02  1.5284584555e+02  8.0098288068e+01 0. 9.
       24     2     1     2     0     0  1.2094068880e+01 -4.4261595566e+01 -6.3957021270e+01  1.1203570136e+02  7.9725419189e+01 0. 9.
        3     1     3     0   102     0 -2.4591603559e+00  6.3281656013e+01 -5.9260647905e+01  8.6733441345e+01  5.0000000000e-01 0. 9.
       -4     1     3     0     0   102 -9.6349085246e+00 -1.9020060447e+01 -6.2562015854e+01  6.6112404202e+01  1.5000000000e+00 0. 9.
      -11     1     4     0     0     0 -2.1524305087e+01 -3.2984565109e+01 -6.5625102933e+01  7.6537124195e+01  5.1100000000e-04 0. 9.
       12     1     4     0     0     0  3.3618373967e+01 -1.1277030457e+01  1.6680816622e+00  3.5498577163e+01  0.0000000000e+00 0. 9.
#pdf    2   -2  4.035809e-02  2.299292e-01  9.198640e+01  5.891537e-01  4.541291e-01
</event>
<event>
     8  9999  1.000000e+00  8.304406e+01  7.809229e-03  1.283533e-01
        2    -1     0     0   101     0  0.0000000000e+00  0.0000000000e+00  6.9194373943e+01  6.9194373943e+01  0.0000000000e+00 0. 9.
       -2    -1     0     0     0   101  0.0000000000e+00  0.0000000000e+00 -1.8098745953e+02  1.8098745953e+02  0.0000000000e+00 0. 9.
      -24     2     1     2     0     0  2.6827989885e+01  2.6104998445e+01 -1.4147335050e+02  1.6701678395e+02  8.0490280372e+01 0. 9.
       24     2     1     2     0     0 -2.6827989885e+01 -2.6104998445e+01  2.9680264919e+01  8.3165049517e+01  6.8075659016e+01 0. 9.
        3     1     3     0   102     0  1.4464848778e+01  5.2365571315e+01 -6.2214348027e+01  8.2596973369e+01  5.0000000000e-01 0. 9.
       -4     1     3     0     0   102  1.2363141107e+01 -2.6260572870e+01 -7.9259002477e+01  8.4419810585e+01  1.5000000000e+00 0. 9.
      -13     1     4     0     0     0  7.4974776023e+00 -3.3975489284e+01  3.2793056493e+01  4.7811523305e+01  1.0566000000e-01 0. 9.
       14     1     4     0     0     0 -3.4325467487e+01  7.8704908394e+00 -3.1127915745e+00  3.5353526212e+01  0.0000000000e+00 0. 9.
#pdf    2   -2  7.060650e-02  1.846811e-01  7.768853e+01  5.763109e-01  5.128425e-01
</event>
<event>
     8  9999  1.000000e+00  1.309754e+02  7.849729e-03  1.198041e-01
        2    -1     0     0   101     0  0.0000000000e+00  0.0000000000e+00  2.5226876916e+02  2.5226876916e+02  0.0000000000e+00 0. 9.
       -2    -1     0     0     0   101  0.0000000000e+00  0.0000000000e+00 -6.9462568109e+01  6.9462568109e+01  0.0000000000e+00 0. 9.
      -24     2     1     2     0     0  5.8054846770e+01 -8.9188743536e+01  6.6587384299e+01  1.4476602650e+02  7.2099413816e+01 0. 9.
       24     2     1     2     0     0 -5.8054846770e+01  8.9188743536e+01  1.1621881676e+02  1.7696531078e+02  8.0528942894e+01 0. 9.
       11     1     3     0     0     0 -1.1167951973e+01 -3.9577951277e+01  3.4768126394e+01  5.3851276603e+01  5.1100000000e-04 0. 9.
      -12     1     3     0     0     0  6.9222798743e+01 -4.9610792258e+01  3.1819257905e+01  9.0914749893e+01  0.0000000000e+00 0. 9.
      -15     1     4     0     0     0  9.9811252180e+00 -8.8820676980e+00  7.0521553429e+00  1.5211987893e+01  1.7769900000e+00 0. 9.
       16     1     4     0     0     0 -6.8035971988e+01  9.8070811234e+01  1.0916666141e+02  1.6175332288e+02  0.0000000000e+00 0. 9.
#pdf    2   -2  2.574171e-01  7.088017e-02  1.285431e+02  4.059589e-01  5.734884e-01
</event>
<event>
     8  9999  1.000000e+00  9.265458e+01  7.818924e-03  1.261891e-01
        1    -1     0     0   101     0  0.0000000000e+00  0.0000000000e+00  5.8149138402e+01  5.8149138402e+01  0.0000000000e+00 0. 9.
       -2    -1     0     0     0   101  0.0000000000e+00  0.0000000000e+00 -6.1625144220e+02  6.1625144220e+02  0.0000000000e+00 0. 9.
       23     2     1     2     0     0 -3.0297560546e+01  1.6440634437e+01 -5.7678079468e+02  5.8509867758e+02  9.2065958709e+01 0. 9.
      -24     2     1     2     0     0  3.0297560546e+01 -1.6440634437e+01  1.8678490885e+01  8.9301903023e+01  8.0235324054e+01 0. 9.
        4     1     3     0   102     0  1.4113878645e+01 -1.0066193259e+01 -4.1239661236e+02  4.1276354696e+02  1.5000000000e+00 0. 9.
       -4     1     3     0     0   102 -4.4411439191e+01  2.6506827696e+01 -1.6438418232e+02  1.7233513061e+02  1.5000000000e+00 0. 9.
        3     1     4     0   103     0  1.9044458172e+01 -3.0780683721e+01  4.4685102919e+01  5.7507828165e+01  5.0000000000e-01 0. 9.
       -4     1     4     0     0   103  1.1253102375e+01  1.4340049285e+01 -2.6006612034e+01  3.1794074857e+01  1.5000000000e+00 0. 9.
#pdf    1   -2  5.933586e-02  6.288280e-01  8.732665e+01  4.006033e-01  4.340319e-02
</event>
<event>
     8  9999  1.000000e+00  1.135407e+02  7.836986e-03  1.223593e-01
        2    -1     0     0   101     0  0.0000000000e+00  0.0000000000e+00  2.1791724574e+02  2.1791724574e+02  0.0000000000e+00 0. 9.
       -2    -1     0     0     0   101  0.0000000000e+00  0.0000000000e+00 -8.6321192613e+01  8.6321192613e+01  0.0000000000e+00 0. 9.
      -24     2     1     2     0     0  7.7856116698e+01  2.5656284168e+01 -2.0510814200e+01  1.1283103695e+02  7.4768506575e+01 0. 9.
       24     2     1     2     0     0 -7.7856116698e+01 -2.5656284168e+01  1.5210686733e+02  1.9140740141e+02  8.2343636061e+01 0. 9.
        1     1     3     0   102     0 -1.0199173967e+01  2.0190494424e+01 -2.2373116642e+00  2.2733096537e+01  3.3000000000e-01 0. 9.
       -2     1     3     0     0   102  8.8055290665e+01  5.4657897448e+00 -1.8273502536e+01  9.0097940413e+01  3.3000000000e-01 0. 9.
      -13     1     4     0     0     0 -2.3402342137e+01 -4.5711453523e+01  3.9716188699e+01  6.4919899950e+01  1.0566000000e-01 0. 9.
       14     1     4     0     0     0 -5.4453774561e+01  2.0055169354e+01  1.1239067863e+02  1.2648750146e+02  0.0000000000e+00 0. 9.
#pdf    2   -2  2.223645e-01  8.808285e-02  1.109511e+02  4.576057e-01  5.691610e-01
</event>
<event>
     8  9999  1.000000e+00  8.870300e+01  7.815063e-03  1.270417e-01
        1    -1     0     0   101     0  0.0000000000e+00  0.0000000000e+00  3.4044819757e+01  3.4044819757e+01  0.0000000000e+00 0. 9.
       -2    -1     0     0     0   101  0.0000000000e+00  0.0000000000e+00 -4.5198616544e+02  4.5198616544e+02  0.0000000000e+00 0. 9.
       23     2     1     2     0     0 -1.6389212018e+01  2.4539773107e+01 -4.4383280484e+01  1.0300167497e+02  8.8140017731e+01 0. 9.
      -24     2     1     2     0     0  1.6389212018e+01 -2.4539773107e+01 -3.7355806520e+02  3.8302931022e+02  7.9341147478e+01 0. 9.
        1     1     3     0   102     0 -5.7019131374e+00  5.7549515819e+01 -3.2416580832e+01  6.6297829507e+01  3.3000000000e-01 0. 9.
       -1     1     3     0     0   102 -1.0687298880e+01 -3.3009742712e+01 -1.1966699652e+01  3.6703845464e+01  3.3000000000e-01 0. 9.
        1     1     4     0   103     0  4.7811347731e+01 -7.3465886364e+00 -1.9466019319e+02  2.0058064974e+02  3.3000000000e-01 0. 9.
       -2     1     4     0     0   103 -3.1422135713e+01 -1.7193184470e+01 -1.7889787201e+02  1.8244866049e+02  3.3000000000e-01 0. 9.
#pdf    1   -2  3.473961e-02  4.612104e-01  8.465119e+01  4.554467e-01  1.611944e-01
</event>
<event>
     8  9999  1.000000e+00  8.243088e+01  7.808574e-03  1.285025e-01
        1    -1     0     0   101     0  0.0000000000e+00  0.0000000000e+00  9.1394980899e+01  9.1394980899e+01  0.0000000000e+00 0. 9.
       -1    -1     0     0     0   101  0.0000000000e+00  0.0000000000e+00 -9.3811816173e+01  9.3811816173e+01  0.0000000000e+00 0. 9.
      -24     2     1     2     0     0  1.0402734763e+01 -8.5387909230e-01  4.0706110477e+01  9.5566850888e+01  8.5831751458e+01 0. 9.
       24     2     1     2     0     0 -1.0402734763e+01  8.5387909230e-01 -4.3122945751e+01  8.9639946184e+01  7.7889572482e+01 0. 9.
        3     1     3     0   102     0 -3.6843745112e-01  2.1947478279e+01  5.9927872103e+01  6.3823407961e+01  5.0000000000e-01 0. 9.
       -4     1     3     0     0   102  1.0771172214e+01 -2.2801357372e+01 -1.9221761626e+01  3.1743442927e+01  1.5000000000e+00 0. 9.
       -3     1     4     0     0   103 -3.7258922487e+01  2.2546612162e+01 -2.8917367661e+01  5.2278496319e+01  5.0000000000e-01 0. 9.
        4     1     4     0   103     0  2.6856187724e+01 -2.1692733070e+01 -1.4205578090e+01  3.7361449865e+01  1.5000000000e+00 0. 9.
#pdf    1   -1  9.326018e-02  9.572634e-02  7.858582e+01  3.533016e-01  3.502217e-01
</event>
<event>
     8  9999  1.000000e+00  8.626401e+01  7.812594e-03  1.275932e-01
        2    -1     0     0   101     0  0.0000000000e+00  0.0000000000e+00  1.5567620010e+02  1.5567620010e+02  0.0000000000e+00 0. 9.
       -2    -1     0     0     0   101  0.0000000000e+00  0.0000000000e+00 -4.8468626012e+01  4.8468626012e+01  0.0000000000e+00 0. 9.
      -24     2     1     2     0     0  5.8351183621e+00  2.7351154797e+01  6.5045941157e+01  1.0739356920e+02  8.0748188650e+01 0. 9.
       24     2     1     2     0     0 -5.8351183621e+00 -2.7351154797e+01  4.2161632935e+01  9.6751256912e+01  8.2468588852e+01 0. 9.
        1     1     3     0   102     0 -1.5209907383e+01 -2.4493871435e+01  2.8624571688e+01  4.0629620043e+01  3.3000000000e-01 0. 9.
       -2     1     3     0     0   102  2.1045025745e+01  5.1845026232e+01  3.6421369469e+01  6.6763949161e+01  3.3000000000e-01 0. 9.
       -3     1     4     0     0   103 -8.5030718348e+00  2.8773554664e+01  2.1290071294e+01  3.6793162603e+01  5.0000000000e-01 0. 9.
        4     1     4     0   103     0  2.6679534727e+00 -5.6124709461e+01  2.0871561641e+01  5.9958094309e+01  1.5000000000e+00 0. 9.
#pdf    2   -2  1.588533e-01  4.945778e-02  8.545411e+01  5.344283e-01  5.823665e-01
</event>
<event>
     8  9999  1.000000e+00  1.152731e+02  7.838335e-03  1.220832e-01
        2    -1     0     0   101     0  0.0000000000e+00  0.0000000000e+00  1.4865192554e+02  1.4865192554e+02  0.0000000000e+00 0. 9.
       -2    -1     0     0     0   101  0.0000000000e+00  0.0000000000e+00 -1.3837814117e+02  1.3837814117e+02  0.0000000000e+00 0. 9.
      -24     2     1     2     0     0 -2.9446824398e+01 -7.9157772702e+01 -8.0267627641e+01  1.4001255488e+02  7.7637330134e+01 0. 9.
       24     2     1     2     0     0  2.9446824398e+01  7.9157772702e+01  9.0541412020e+01  1.4701751183e+02  7.9267477875e+01 0. 9.
       15     1     3     0     0     0  2.3587702401e+00 -7.2166285260e+01 -2.6077144633e+01  7.6790049427e+01  1.7769900000e+00 0. 9.
      -16     1     3     0     0     0 -3.1805594638e+01 -6.9914874415e+00 -5.4190483009e+01  6.3222505452e+01  0.0000000000e+00 0. 9.
       -3     1     4     0     0   102 -2.7513515253e+01  2.6491573434e+01  2.8060376448e+01  4.7396536909e+01  5.0000000000e-01 0. 9.
        4     1     4     0   102     0  5.6960339651e+01  5.2666199268e+01  6.2481035572e+01  9.9620974923e+01  1.5000000000e+00 0. 9.
#pdf    2   -2  1.516856e-01  1.412022e-01  1.147198e+02  5.329375e-01  5.411903e-01
</event>
<event>
     8  9999  1.000000e+00  9.079496e+01  7.817128e-03  1.265843e-01
        1    -1     0     0   101     0  0.0000000000e+00  0.0000000000e+00  1.2391858758e+02  1.2391858758e+02  0.0000000000e+00 0. 9.
       -1    -1     0     0     0   101  0.0000000000e+00  0.0000000000e+00 -6.8362426983e+01  6.8362426983e+01  0.0000000000e+00 0. 9.
      -24     2     1     2     0     0 -5.0785386291e+00 -4.6703262094e+01  1.3158549293e+01  9.4610573253e+01  8.1061870858e+01 0. 9.
       24     2     1     2     0     0  5.0785386291e+00  4.6703262094e+01  4.2397611300e+01  9.7670441305e+01  7.4397388503e+01 0. 9.
        1     1     3     0   102     0 -5.7851424443e+00  7.4611680323e+00 -2.6069453216e+01  2.7728364403e+01  3.3000000000e-01 0. 9.
       -2     1     3     0     0   102  7.0660381518e-01 -5.4164430126e+01  3.9228002509e+01  6.6882208850e+01  3.3000000000e-01 0. 9.
       -1     1     4     0     0   103 -1.1502510536e+01  1.7155839331e+01 -1.8662298012e+01  2.7839196089e+01  3.3000000000e-01 0. 9.
        2     1     4     0   103     0  1.6581049165e+01  2.9547422762e+01  6.1059909312e+01  6.9831245216e+01  3.3000000000e-01 0. 9.
#pdf    1   -1  1.264475e-01  6.975758e-02  8.798840e+01  3.118062e-01  3.839961e-01
</event>
<event>
     8  9999  1.000000e+00  1.001283e+02  7.825807e-03  1.246997e-01
        2    -1     0     0   101     0  0.0000000000e+00  0.0000000000e+00  2.1746653492e+02  2.1746653492e+02  0.0000000000e+00 0. 9.
       -2    -1     0     0     0   101  0.0000000000e+00  0.0000000000e+00 -4.7981638031e+01  4.7981638031e+01  0.0000000000e+00 0. 9.
      -24     2     1     2     0     0  6.6995132630e+00  8.4401713569e+00  7.0771022727e+01  1.0833333684e+02  8.1310849474e+01 0. 9.
       24     2     1     2     0     0 -6.6995132630e+00 -8.4401713569e+00  9.8713874164e+01  1.5711483611e+02  1.2175599700e+02 0. 9.
        1     1     3     0   102     0 -1.2269346853e+01 -2.5594669881e+01  6.2294272672e+01  6.8456623538e+01  3.3000000000e-01 0. 9.
       -2     1     3     0     0   102  1.8968860116e+01  3.4034841237e+01  8.4767500549e+00  3.9876713300e+01  3.3000000000e-01 0. 9.
      -13     1     4     0     0     0 -5.3423295874e+01  3.5995052662e+00  7.6906697399e+00  5.4094015800e+01  1.0566000000e-01 0. 9.
       14     1     4     0     0     0  4.6723782612e+01 -1.2039676623e+01  9.1023204425e+01  1.0302082032e+02  0.0000000000e+00 0. 9.
#pdf    2   -2  2.219046e-01  4.896086e-02  8.202179e+01  4.682498e-01  5.824599e-01
</event>
<event>
     8  9999  1.000000e+00  9.494160e+01  7.821087e-03  1.257171e-01
        2    -1     0     0   101     0  0.0000000000e+00  0.0000000000e+00  1.5008182187e+02  1.5008182187e+02  0.0000000000e+00 0. 9.
       -2    -1     0     0     0   101  0.0000000000e+00  0.0000000000e+00 -1.1209391875e+02  1.1209391875e+02  0.0000000000e+00 0. 9.
      -24     2     1     2     0     0 -1.5337960414e+01 -3.7055845952e+01 -7.0582478262e+01  1.1570863463e+02  8.2451277384e+01 0. 9.
       24     2     1     2     0     0  1.5337960414e+01  3.7055845952e+01  1.0857038138e+02  1.4646710598e+02  8.9759103572e+01 0. 9.
        5     1     3     0   102     0  1.3522045054e+01 -5.1909228312e+01 -2.4116687600e+01  5.9009052757e+01  4.8000000000e+00 0. 9.
       -4     1     3     0     0   102 -2.8860005468e+01  1.4853382360e+01 -4.6465790663e+01  5.6699581877e+01  1.5000000000e+00 0. 9.
      -11     1     4     0     0     0 -3.5637097329e+01  2.2771528462e+01  3.0505893788e+01  5.2145515345e+01  5.1100000000e-04 0. 9.
       12     1     4     0     0     0  5.0975057743e+01  1.4284317491e+01  7.8064487590e+01  9.4321590640e+01  0.0000000000e+00 0. 9.
#pdf    2   -2  1.531447e-01  1.143815e-01  9.168752e+01  5.373234e-01  5.618867e-01
</event>
<event>
     8  9999  1.000000e+00  8.495208e+01  7.811238e-03  1.278983e-01
        2    -1     0     0   101     0  0.0000000000e+00  0.0000000000e+00  2.4482133864e+02  2.4482133864e+02  0.0000000000e+00 0. 9.
       -2    -1     0     0     0   101  0.0000000000e+00  0.0000000000e+00 -2.9612139516e+01  2.9612139516e+01  0.0000000000e+00 0. 9.
      -24     2     1     2     0     0 -2.5529841526e+01 -9.3753151378e+00  9.8111500409e+01  1.2964178596e+02  8.0258686837e+01 0. 9.
       24     2     1     2     0     0  2.5529841526e+01  9.3753151378e+00  1.1709769871e+02  1.4479169219e+02  8.0703740567e+01 0. 9.
        3     1     3     0   102     0 -1.7707783349e+01 -4.0636486212e+01  2.7913725375e+01  5.2386216385e+01  5.0000000000e-01 0. 9.
       -4     1     3     0     0   102 -7.8220581778e+00  3.1261171075e+01  7.0197775034e+01  7.7255569578e+01  1.5000000000e+00 0. 9.
       -1     1     4     0     0   103  5.3885042526e+00  1.0444782534e+00 -1.2351357051e+01  1.3520053029e+01  3.3000000000e-01 0. 9.
        2     1     4     0   103     0  2.0141337274e+01  8.3308368844e+00  1.2944905576e+02  1.3127163916e+02  3.3000000000e-01 0. 9.
#pdf    2   -2  2.498177e-01  3.021647e-02  8.474153e+01  4.306611e-01  6.019791e-01
</event>
<event>
     8  9999  1.000000e+00  1.199282e+02  7.841864e-03  1.213675e-01
        2    -1     0     0   101     0  0.0000000000e+00  0.0000000000e+00  2.9615559825e+02  2.9615559825e+02  0.0000000000e+00 0. 9.
       -2    -1     0     0     0   101  0.0000000000e+00  0.0000000000e+00 -1.3302550966e+02  1.3302550966e+02  0.0000000000e+00 0. 9.
      -24     2     1     2     0     0  8.3155784998e+01  2.8306897328e+01 -8.9582007683e+01  1.4917909837e+02  8.0705032528e+01 0. 9.
       24     2     1     2     0     0 -8.3155784998e+01 -2.8306897328e+01  2.5271209628e+02  2.8000200954e+02  8.2592715954e+01 0. 9.
        1     1     3     0   102     0  2.5304517821e+00 -2.0823547973e+01 -3.3008581267e+01  3.9111362462e+01  3.3000000000e-01 0. 9.
       -2     1     3     0     0   102  8.0625333216e+01  4.9130445301e+01 -5.6573426416e+01  1.1006773591e+02  3.3000000000e-01 0. 9.
      -15     1     4     0     0     0 -6.9067797193e+01 -1.1822964166e+01  8.1819365296e+01  1.0773907983e+02  1.7769900000e+00 0. 9.
       16     1     4     0     0     0 -1.4087987805e+01 -1.6483933163e+01  1.7089273098e+02  1.7226292972e+02  0.0000000000e+00 0. 9.
#pdf    2   -2  3.021996e-01  1.357403e-01  1.192873e+02  3.460161e-01  5.442651e-01
</event>
<event>
     8  9999  1.000000e+00  9.283340e+01  7.819095e-03  1.261517e-01
        2    -1     0     0   101     0  0.0000000000e+00  0.0000000000e+00  1.9142500163e+02  1.9142500163e+02  0.0000000000e+00 0. 9.
       -2    -1     0     0     0   101  0.0000000000e+00  0.0000000000e+00 -5.3570908910e+01  5.3570908910e+01  0.0000000000e+00 0. 9.
      -24     2     1     2     0     0 -4.0192218861e+01  2.4669250053e+01  1.9428349475e+01  9.3949020836e+01  7.8898487929e+01 0. 9.
       24     2     1     2     0     0  4.0192218861e+01 -2.4669250053e+01  1.1842574325e+02  1.5104688971e+02  8.1034066114e+01 0. 9.
        1     1     3     0   102     0 -2.5959718912e+00 -2.6899700939e+01  1.2426057915e+01  2.9746408119e+01  3.3000000000e-01 0. 9.
       -2     1     3     0     0   102 -3.7596246970e+01  5.1568950992e+01  7.0022915601e+00  6.4202612717e+01  3.3000000000e-01 0. 9.
      -11     1     4     0     0     0  6.2125463919e+01 -2.2374083346e+00  7.3740584690e+01  9.6448188651e+01  5.1100000000e-04 0. 9.
       12     1     4     0     0     0 -2.1933245058e+01 -2.2431841718e+01  4.4685158556e+01  5.4598701055e+01  0.0000000000e+00 0. 9.
#pdf    2   -2  1.953316e-01  5.466419e-02  9.191821e+01  4.961769e-01  5.802028e-01
</event>
<event>
     8  9999  1.000000e+00  9.065063e+01  7.816987e-03  1.266154e-01
        2    -1     0     0   101     0  0.0000000000e+00  0.0000000000e+00  2.5379138215e+01  2.5379138215e+01  0.0000000000e+00 0. 9.
       -2    -1     0     0     0   101  0.0000000000e+00  0.0000000000e+00 -3.9151612931e+02  3.9151612931e+02  0.0000000000e+00 0. 9.
      -24     2     1     2     0     0 -3.2734187422e+01  2.4873367038e+01 -2.7529371955e+02  2.9098002215e+02  8.4808784078e+01 0. 9.
       24     2     1     2     0     0  3.2734187422e+01 -2.4873367038e+01 -9.0843271552e+01  1.2591524538e+02  7.6889125485e+01 0. 9.
        1     1     3     0   102     0 -1.8758929717e+01  5.6389858910e+01 -1.8588905381e+02  1.9515778964e+02  3.3000000000e-01 0. 9.
       -2     1     3     0     0   102 -1.3975257706e+01 -3.1516491872e+01 -8.9404665736e+01  9.5822232510e+01  3.3000000000e-01 0. 9.
       -1     1     4     0     0   103 -1.2565034306e+01  1.6663744784e+01 -4.3791758384e+01  4.8511725177e+01  3.3000000000e-01 0. 9.
        2     1     4     0   103     0  4.5299221729e+01 -4.1537111822e+01 -4.7051513168e+01  7.7403520199e+01  3.3000000000e-01 0. 9.
#pdf    2   -2  2.589708e-02  3.995063e-01  8.719030e+01  6.124097e-01  2.281683e-01
</event>
<event>
     8  9999  1.000000e+00  1.051694e+02  7.830172e-03  1.237746e-01
        2    -1     0     0   101     0  0.0000000000e+00  0.0000000000e+00  3.0755778571e+02  3.0755778571e+02  0.0000000000e+00 0. 9.
       -1    -1     0     0     0   101  0.0000000000e+00  0.0000000000e+00 -6.1265646545e+01  6.1265646545e+01  0.0000000000e+00 0. 9.
       23     2     1     2     0     0  5.3117538294e+01 -2.6774775394e+01  8.4454485969e+00  1.1074550537e+02  9.3031606917e+01 0. 9.
       24     2     1     2     0     0 -5.3117538294e+01  2.6774775394e+01  2.3784669057e+02  2.5807792689e+02  8.0590363319e+01 0. 9.
        5     1     3     0   102     0  5.1526098723e+01 -1.5247181422e+01  4.6150142985e+01  7.0995007490e+01  4.8000000000e+00 0. 9.
       -5     1     3     0     0   102  1.5914395715e+00 -1.1527593972e+01 -3.7704694389e+01  3.9750497879e+01  4.8000000000e+00 0. 9.
       -3     1     4     0     0   103 -5.1076864491e+01  5.1599178037e+01  1.4830105026e+02  1.6512047956e+02  5.0000000000e-01 0. 9.
        4     1     4     0   103     0 -2.0406738029e+00 -2.4824402643e+01  8.9545640309e+01  9.2957447332e+01  1.5000000000e+00 0. 9.
#pdf    2   -1  3.138345e-01  6.251597e-02  1.001657e+02  3.357796e-01  3.944979e-01
</event>
<event>
     8  9999  1.000000e+00  8.777297e+01  7.814129e-03  1.272496e-01
        1    -1     0     0   101     0  0.0000000000e+00  0.0000000000e+00  1.3313777713e+02  1.3313777713e+02  0.0000000000e+00 0. 9.
       -1    -1     0     0     0   101  0.0000000000e+00  0.0000000000e+00 -2.4308282686e+02  2.4308282686e+02  0.0000000000e+00 0. 9.
      -24     2     1     2     0     0 -1.6094130172e+01  3.9438381892e+00  1.0991816188e+02  1.3709295398e+02  8.0236530553e+01 0. 9.
       24     2     1     2     0     0  1.6094130172e+01 -3.9438381892e+00 -2.1986321160e+02  2.3912765001e+02  9.2561473066e+01 0. 9.
        1     1     3     0   102     0 -2.4082384699e+01  3.4531044088e+01  9.0957195604e+01  1.0022811278e+02  3.3000000000e-01 0. 9.
       -2     1     3     0     0   102  7.9882545263e+00 -3.0587205899e+01  1.8960966275e+01  3.6864841206e+01  3.3000000000e-01 0. 9.
      -11     1     4     0     0     0  3.9606555901e+01 -2.8322824754e+01 -1.8165940789e+02  1.8807180051e+02  5.1100000000e-04 0. 9.
       12     1     4     0     0     0 -2.3512425729e+01  2.4378986565e+01 -3.8203803711e+01  5.1055849495e+01  0.0000000000e+00 0. 9.
#pdf    1   -1  1.358549e-01  2.480437e-01  8.192970e+01  3.021229e-01  1.843971e-01
</event>
<event>
     8  9999  1.000000e+00  8.552131e+01  7.811829e-03  1.277652e-01
        2    -1     0     0   101     0  0.0000000000e+00  0.0000000000e+00  8.5877600374e+01  8.5877600374e+01  0.0000000000e+00 0. 9.
       -2    -1     0     0     0   101  0.0000000000e+00  0.0000000000e+00 -2.1499667720e+02  2.1499667720e+02  0.0000000000e+00 0. 9.
      -24     2     1     2     0     0 -2.3772246662e+01 -2.0567411012e+01 -1.8151864199e+02  2.0073623035e+02  7.9736307148e+01 0. 9.
       24     2     1     2     0     0  2.3772246662e+01  2.0567411012e+01  5.2399565168e+01  1.0013804722e+02  7.9333321906e+01 0. 9.
        1     1     3     0   102     0  1.2763055737e+01 -1.4574436703e+01 -4.5059088116e+00  1.9892760271e+01  3.3000000000e-01 0. 9.
       -2     1     3     0     0   102 -3.6535302399e+01 -5.9929743087e+00 -1.7701273318e+02  1.8084347008e+02  3.3000000000e-01 0. 9.
       -1     1     4     0     0   103 -2.4943654476e+01  2.5569236206e+01  2.8202368688e+01  4.5513231465e+01  3.3000000000e-01 0. 9.
        2     1     4     0   103     0  4.8715901138e+01 -5.0018251942e+00  2.4197196480e+01  5.4624815757e+01  3.3000000000e-01 0. 9.
#pdf    2   -2  8.763020e-02  2.193844e-01  8.533413e+01  5.721142e-01  4.700547e-01
</event>
<event>
     8  9999  1.000000e+00  8.548677e+01  7.811793e-03  1.277732e-01
        1    -1     0     0   101     0  0.0000000000e+00  0.0000000000e+00  2.5971990607e+02  2.5971990607e+02  0.0000000000e+00 0. 9.
       -1    -1     0     0     0   101  0.0000000000e+00  0.0000000000e+00 -4.1979989056e+01  4.1979989056e+01  0.0000000000e+00 0. 9.
      -24     2     1     2     0     0  4.5521336177e+01 -1.3908864966e+00  1.6208206080e+01  7.9222633165e+01  6.2764584350e+01 0. 9.
       24     2     1     2     0     0 -4.5521336177e+01  1.3908864966e+00  2.0153171093e+02  2.2247726196e+02  8.2504393612e+01 0. 9.
       11     1     3     0     0     0  2.8285336123e+01  2.9970928696e+01  1.3365539125e+01  4.3323832273e+01  5.1100000000e-04 0. 9.
      -12     1     3     0     0     0  1.7236000054e+01 -3.1361815192e+01  2.8426669547e+00  3.5898800892e+01  0.0000000000e+00 0. 9.
      -15     1     4     0     0     0  1.0668314748e+01 -2.5676971688e+01  3.5569540484e+01  4.5182626289e+01  1.7769900000e+00 0. 9.
       16     1     4     0     0     0 -5.6189650925e+01  2.7067858185e+01  1.6596217045e+02  1.7729463567e+02  0.0000000000e+00 0. 9.
#pdf    1   -1  2.650203e-01  4.283672e-02  7.754689e+01  1.698983e-01  4.333697e-01
</event>
<event>
     8  9999  1.000000e+00  1.004144e+02  7.826061e-03  1.246456e-01
        2    -1     0     0   101     0  0.0000000000e+00  0.0000000000e+00  4.4067914952e+02  4.4067914952e+02  0.0000000000e+00 0. 9.
       -1    -1     0     0     0   101  0.0000000000e+00  0.0000000000e+00 -2.7882477153e+01  2.7882477153e+01  0.0000000000e+00 0. 9.
       23     2     1     2     0     0 -5.0208493705e+01 -1.6724944784e+01  3.1206958664e+02  3.2912548777e+02  9.0197245945e+01 0. 9.
       24     2     1     2     0     0  5.0208493705e+01  1.6724944784e+01  1.0072708573e+02  1.3943613890e+02  8.0596987628e+01 0. 9.
        5     1     3     0   102     0 -5.4205215256e+01  1.2453273245e+01  2.7922394939e+02  2.8474961508e+02  4.8000000000e+00 0. 9.
       -5     1     3     0     0   102  3.9967215507e+00 -2.9178218030e+01  3.2845637246e+01  4.4375872686e+01  4.8000000000e+00 0. 9.
       -1     1     4     0     0   103  1.0629657895e+01 -1.2612553467e+01 -9.2599336119e+00  1.8918810809e+01  3.3000000000e-01 0. 9.
        2     1     4     0   103     0  3.9578835809e+01  2.9337498251e+01  1.0998701934e+02  1.2051732809e+02  3.3000000000e-01 0. 9.
#pdf    2   -1  4.496726e-01  2.845151e-02  9.641831e+01  1.695062e-01  4.790907e-01
</event>
<event>
     8  9999  1.000000e+00  9.008183e+01  7.816429e-03  1.267387e-01
        2    -1     0     0   101     0  0.0000000000e+00  0.0000000000e+00  1.0135719040e+02  1.0135719040e+02  0.0000000000e+00 0. 9.
       -1    -1     0     0     0   101  0.0000000000e+00  0.0000000000e+00 -2.2738425331e+02  2.2738425331e+02  0.0000000000e+00 0. 9.
       23     2     1     2     0     0 -2.3646781145e+01 -2.6684806102e+01 -1.9681752845e+02  2.2001329823e+02  9.1637671063e+01 0. 9.
       24     2     1     2     0     0  2.3646781145e+01  2.6684806102e+01  7.0790465540e+01  1.0872814548e+02  7.4426275420e+01 0. 9.
        1     1     3     0   102     0 -2.9872465342e+00 -5.7110995988e+01 -8.6239060926e+01  1.0347885791e+02  3.3000000000e-01 0. 9.
       -1     1     3     0     0   102 -2.0659534611e+01  3.0426189886e+01 -1.1057846752e+02  1.1653444032e+02  3.3000000000e-01 0. 9.
       -1     1     4     0     0   103 -2.3660257939e+01  2.4462564370e+01  3.8610714008e+01  5.1469612370e+01  3.3000000000e-01 0. 9.
        2     1     4     0   103     0  4.7307039084e+01  2.2222417314e+00  3.2179751532e+01  5.7258533110e+01  3.3000000000e-01 0. 9.
#pdf    2   -1  1.034257e-01  2.320247e-01  8.252587e+01  5.679777e-01  1.995332e-01
</event>
<event>
     8  9999  1.000000e+00  8.631073e+01  7.812642e-03  1.275824e-01
        2    -1     0     0   101     0  0.0000000000e+00  0.0000000000e+00  1.4086542369e+02  1.4086542369e+02  0.0000000000e+00 0. 9.
       -2    -1     0     0     0   101  0.0000000000e+00  0.0000000000e+00 -9.4003910099e+01  9.4003910099e+01  0.0000000000e+00 0. 9.
      -24     2     1     2     0     0 -1.1574459353e+01  2.9230542253e+01 -5.4256289108e+01  1.0184794442e+02  8.0255007099e+01 0. 9.
       24     2     1     2     0     0  1.1574459353e+01 -2.9230542253e+01  1.0111780270e+02  1.3302138937e+02  8.0507684712e+01 0. 9.
       15     1     3     0     0     0  2.5329955547e+01 -6.1850140784e+00 -4.1646778826e+01  4.9167803766e+01  1.7769900000e+00 0. 9.
      -16     1     3     0     0     0 -3.6904414900e+01  3.5415556331e+01 -1.2609510282e+01  5.2680140650e+01  0.0000000000e+00 0. 9.
       -3     1     4     0     0   102 -2.4252148300e+01 -3.4951596883e+01  2.6731334896e+01  5.0245348911e+01  5.0000000000e-01 0. 9.
        4     1     4     0   102     0  3.5826607653e+01  5.7210546304e+00  7.4386467801e+01  8.2776040458e+01  1.5000000000e+00 0. 9.
#pdf    2   -2  1.437402e-01  9.592236e-02  8.619315e+01  5.459901e-01  5.697613e-01
</event>
<event>
     8  9999  1.000000e+00  9.725906e+01  7.823226e-03  1.252538e-01
        2    -1     0     0   101     0  0.0000000000e+00  0.0000000000e+00  2.8460584126e+01  2.8460584126e+01  0.0000000000e+00 0. 9.
       -2    -1     0     0     0   101  0.0000000000e+00  0.0000000000e+00 -3.7766813367e+02  3.7766813367e+02  0.0000000000e+00 0. 9.
      -24     2     1     2     0     0  4.8763569587e+01  5.9791846119e+00 -2.3973107230e+02  2.5757593663e+02  8.0378726886e+01 0. 9.
       24     2     1     2     0     0 -4.8763569587e+01 -5.9791846119e+00 -1.0947647724e+02  1.4855278117e+02  8.7573930799e+01 0. 9.
       11     1     3     0     0     0  2.9108291030e+01 -3.1601088008e+01 -6.6066962504e+01  7.8808406308e+01  5.1100000000e-04 0. 9.
      -12     1     3     0     0     0  1.9655278557e+01  3.7580272620e+01 -1.7366410980e+02  1.7876753032e+02  0.0000000000e+00 0. 9.
      -13     1     4     0     0     0 -3.9551685103e+01  2.3626389107e+01 -1.0810967823e+02  1.1751704450e+02  1.0566000000e-01 0. 9.
       14     1     4     0     0     0 -9.2118844844e+00 -2.9605573718e+01 -1.3667990109e+00  3.1035736667e+01  0.0000000000e+00 0. 9.
#pdf    2   -2  2.904141e-02  3.853756e-01  9.420391e+01  6.060823e-01  2.430159e-01
</event>
<event>
     8  9999  1.000000e+00  8.564120e+01  7.811953e-03  1.277373e-01
        1    -1     0     0   101     0  0.0000000000e+00  0.0000000000e+00  3.1784078429e+02  3.1784078429e+02  0.0000000000e+00 0. 9.
       -1    -1     0     0     0   101  0.0000000000e+00  0.0000000000e+00 -2.3319560292e+01  2.3319560292e+01  0.0000000000e+00 0. 9.
      -24     2     1     2     0     0 -2.6502413421e+01  1.7319672532e+01  1.3132386707e+02  1.5724263110e+02  8.0479425927e+01 0. 9.
       24     2     1     2     0     0  2.6502413421e+01 -1.7319672532e+01  1.6319735693e+02  1.8391771349e+02  7.8676547029e+01 0. 9.
        1     1     3     0   102     0  1.4294407091e+01 -2.4261958286e+01  3.9926508936e+01  4.8859059649e+01  3.3000000000e-01 0. 9.
       -2     1     3     0     0   102 -4.0796820512e+01  4.1581630819e+01  9.1397358135e+01  1.0838357145e+02  3.3000000000e-01 0. 9.
       -3     1     4     0     0   103 -1.6232421021e+01  8.9039367617e+00  6.8936768987e+00  1.9762195304e+01  5.0000000000e-01 0. 9.
        4     1     4     0   103     0  4.2734834442e+01 -2.6223609294e+01  1.5630368003e+02  1.6415551819e+02  1.5000000000e+00 0. 9.
#pdf    1   -1  3.243273e-01  2.379547e-02  8.480771e+01  1.204465e-01  4.994128e-01
</event>
<event>
     8  9999  1.000000e+00  1.226348e+02  7.843854e-03  1.209677e-01
        2    -1     0     0   101     0  0.0000000000e+00  0.0000000000e+00  1.9584615564e+02  1.9584615564e+02  0.0000000000e+00 0. 9.
       -2    -1     0     0     0   101  0.0000000000e+00  0.0000000000e+00 -3.8928528417e+02  3.8928528417e+02  0.0000000000e+00 0. 9.
       23     2     1     2     0     0  6.2020962632e+01 -5.2957404399e+01 -3.5892907830e+02  3.7947768542e+02  9.2315459145e+01 0. 9.
       23     2     1     2     0     0 -6.2020962632e+01  5.2957404399e+01  1.6548994976e+02  2.0565375439e+02  9.0859543991e+01 0. 9.
        1     1     3     0   104     0  1.4115786678e+01 -3.2715409201e+01 -3.0342887088e+01  4.6801208633e+01  3.3000000000e-01 0. 9.
       -1     1     3     0     0   104  4.7905175954e+01 -2.0241995198e+01 -3.2858619121e+02  3.3267647679e+02  3.3000000000e-01 0. 9.
       13     1     4     0     0     0 -4.1604749153e+01  3.1412428841e+01  1.6796466880e+02  1.7586880613e+02  1.0566000000e-01 0. 9.
      -13     1     4     0     0     0 -2.0416213478e+01  2.1544975557e+01 -2.4747190398e+00  2.9784948261e+01  1.0566000000e-01 0. 9.
#pdf    2   -2  1.998430e-01  3.972299e-01  1.220924e+02  4.822620e-01  2.209559e-01
</event>
<event>
     8  9999  1.000000e+00  9.476721e+01  7.820924e-03  1.257526e-01
        2    -1     0     0   101     0  0.0000000000e+00  0.0000000000e+00  2.4271395740e+02  2.4271395740e+02  0.0000000000e+00 0. 9.
       -2    -1     0     0     0   101  0.0000000000e+00  0.0000000000e+00 -4.5265645744e+01  4.5265645744e+01  0.0000000000e+00 0. 9.
      -24     2     1     2     0     0  3.3184555412e-01  4.7073026668e+01  1.5897836149e+02  1.8435030355e+02  8.0591159783e+01 0. 9.
       24     2     1     2     0     0 -3.3184555412e-01 -4.7073026668e+01  3.8469950168e+01  1.0362929960e+02  8.3923266787e+01 0. 9.
       11     1     3     0     0     0 -1.4951650387e+01  6.0104675923e+01  1.5012679078e+02  1.6240128456e+02  5.1100000000e-04 0. 9.
      -12     1     3     0     0     0  1.5283495941e+01 -1.3031649255e+01  8.8515707114e+00  2.1949018988e+01  0.0000000000e+00 0. 9.
      -11     1     4     0     0     0 -1.7492198356e+01 -6.6523864090e+01  3.5827253384e+01  7.7556389692e+01  5.1100000000e-04 0. 9.
       12     1     4     0     0     0  1.7160352802e+01  1.9450837422e+01  2.6426967841e+00  2.6072909907e+01  0.0000000000e+00 0. 9.
#pdf    2   -2  2.476673e-01  4.618943e-02  9.333228e+01  4.301672e-01  5.846202e-01
</event>
<event>
     8  9999  1.000000e+00  8.209329e+01  7.808211e-03  1.285852e-01
        2    -1     0     0   101     0  0.0000000000e+00  0.0000000000e+00  9.9722239892e+01  9.9722239892e+01  0.0000000000e+00 0. 9.
       -2    -1     0     0     0   101  0.0000000000e+00  0.0000000000e+00 -7.5051245490e+01  7.5051245490e+01  0.0000000000e+00 0. 9.
      -24     2     1     2     0     0  1.1040006434e+01  5.4151601000e+00  3.9857113052e+01  9.0950825845e+01  8.0822382791e+01 0. 9.
       24     2     1     2     0     0 -1.1040006434e+01 -5.4151601000e+00 -1.5186118650e+01  8.3822659537e+01  8.1513277147e+01 0. 9.
       13     1     3     0     0     0  4.2087432091e+01 -7.3500758954e+00  3.8246989361e+01  5.7342993599e+01  1.0566000000e-01 0. 9.
      -14     1     3     0     0     0 -3.1047425657e+01  1.2765235995e+01  1.6101236908e+00  3.3607832246e+01  0.0000000000e+00 0. 9.
       -1     1     4     0     0   102  8.0371944518e+00 -4.0892842612e+01 -1.2218076826e+01  4.3430535028e+01  3.3000000000e-01 0. 9.
        2     1     4     0   102     0 -1.9077200886e+01  3.5477682512e+01 -2.9680418241e+00  4.0392124509e+01  3.3000000000e-01 0. 9.
#pdf    2   -2  1.017574e-01  7.658290e-02  8.175245e+01  5.686722e-01  5.748884e-01
</event>
<event>
     8  9999  1.000000e+00  8.381456e+01  7.810046e-03  1.281680e-01
        2    -1     0     0   101     0  0.0000000000e+00  0.0000000000e+00  3.7479641972e+01  3.7479641972e+01  0.0000000000e+00 0. 9.
       -2    -1     0     0     0   101  0.0000000000e+00  0.0000000000e+00 -1.9585821048e+02  1.9585821048e+02  0.0000000000e+00 0. 9.
      -24     2     1     2     0     0 -1.3683128215e+00 -1.6978912492e+01 -1.0121712286e+02  1.3004763456e+02  7.9858158909e+01 0. 9.
       24     2     1     2     0     0  1.3683128215e+00  1.6978912492e+01 -5.7161445648e+01  1.0329021790e+02  8.4328420447e+01 0. 9.
       13     1     3     0     0     0  2.5211921015e+01 -1.3795426485e+01 -9.9112062580e+01  1.0319480058e+02  1.0566000000e-01 0. 9.
      -14     1     3     0     0     0 -2.6580233836e+01 -3.1834860063e+00 -2.1050602791e+00  2.6852833979e+01  0.0000000000e+00 0. 9.
       -3     1     4     0     0   102 -9.0408593952e+00  5.0076916084e+01 -3.8894077443e+01  6.4050245302e+01  5.0000000000e-01 0. 9.
        4     1     4     0   102     0  1.0409172217e+01 -3.3098003593e+01 -1.8267368206e+01  3.9239972595e+01  1.5000000000e+00 0. 9.
#pdf    2   -2  3.824453e-02  1.998553e-01  8.165465e+01  5.901534e-01  4.948037e-01
</event>
</LesHouchesEvents>
